#     Step Nr.          Time[fs]        Kin.[a.u.]          Temp[K]            Pot.[a.u.]        Cons Qty[a.u.]        UsedTime[s]
      4466         4466.000000         0.657934338       434.188053912     -4108.162228605     -4107.953389479      5764.574908902
      4467         4467.000000         0.659095810       434.954539983     -4108.162387161     -4107.953414771      3278.842423773
      4468         4468.000000         0.653490103       431.255187319     -4108.162600575     -4107.953448337      3912.814979786
      4469         4469.000000         0.658466507       434.539246481     -4108.162847844     -4107.953451233      2783.324811139
      4470         4470.000000         0.661356772       436.446607733     -4108.163135934     -4107.953443459      1961.536573023
      4471         4471.000000         0.663281259       437.716627131     -4108.163456587     -4107.953444832      1469.809704919
      4466         4466.000000         0.657934338       434.188053912     -4108.162228605     -4107.953389479      5695.590108557
      4467         4467.000000         0.659095810       434.954539983     -4108.162387161     -4107.953414771      3218.380520461
      4468         4468.000000         0.653490103       431.255187319     -4108.162600575     -4107.953448337      3846.746897015
      4469         4469.000000         0.658466507       434.539246481     -4108.162847844     -4107.953451233      2744.735272676
      4470         4470.000000         0.661356772       436.446607733     -4108.163135934     -4107.953443459      1965.403541223
      4471         4471.000000         0.663281259       437.716627131     -4108.163456587     -4107.953444832      1448.539382107
      4472         4472.000000         0.662671809       437.314434888     -4108.163832827     -4107.953475369      1610.812952751
      4473         4473.000000         0.663390908       437.788987238     -4108.164242208     -4107.953483433      1898.114463211
      4474         4474.000000         0.666527655       439.859008508     -4108.164689934     -4107.953477743      2142.474608008
      4475         4475.000000         0.668910832       441.431729485     -4108.165169833     -4107.953481346      2101.413956893
      4476         4476.000000         0.665966150       439.488456426     -4108.165708386     -4107.953511963      1848.280023218
      4477         4477.000000         0.664722520       438.667752822     -4108.166277747     -4107.953517068      1532.879539958
      4478         4478.000000         0.664297402       438.387206240     -4108.166884564     -4107.953515084      1336.439532620
      4479         4479.000000         0.665420170       439.128150095     -4108.167517128     -4107.953513047      1636.717597965
      4480         4480.000000         0.666669403       439.952551562     -4108.168206899     -4107.953534538       987.502505281
      4481         4481.000000         0.669853065       442.053533698     -4108.168920984     -4107.953538975       851.264265638
      4482         4482.000000         0.674647523       445.217521472     -4108.169671574     -4107.953535330       772.031018628
      4483         4483.000000         0.678293789       447.623787635     -4108.170445754     -4107.953533374       857.929476881
      4484         4484.000000         0.683208785       450.867321755     -4108.171262014     -4107.953552078      1001.267776270
      4485         4485.000000         0.680949038       449.376055791     -4108.172097046     -4107.953557435      1204.315812059
      4486         4486.000000         0.683897946       451.322117307     -4108.172950512     -4107.953555304      1414.391551380
      4487         4487.000000         0.680511645       449.087408655     -4108.173815082     -4107.953556832      1536.057257943
      4488         4488.000000         0.673655597       444.562923862     -4108.174706930     -4107.953577345      1523.012693880
      4489         4489.000000         0.681577541       449.790821336     -4108.175612958     -4107.953581079      1328.230996395
      4490         4490.000000         0.685256920       452.218939889     -4108.176531055     -4107.953577214      1133.092987853
      4491         4491.000000         0.695523260       458.993965821     -4108.177452329     -4107.953577231      1280.073900472
      4492         4492.000000         0.703239205       464.085919337     -4108.178401769     -4107.953600136      1614.780165700
      4493         4493.000000         0.697112749       460.042911058     -4108.179341801     -4107.953604209      1836.810283877
      4494         4494.000000         0.696071262       459.355606344     -4108.180274687     -4107.953599017      1609.530082403
      4495         4495.000000         0.693152486       457.429430196     -4108.181191782     -4107.953593557      1264.189324050
      4496         4496.000000         0.692353657       456.902261899     -4108.182118022     -4107.953611405      1009.704174548
      4497         4497.000000         0.693497226       457.656932979     -4108.183023030     -4107.953617299       835.914549767
      4498         4498.000000         0.698726133       461.107625041     -4108.183919606     -4107.953614426       821.775680119
      4499         4499.000000         0.700911477       462.549790472     -4108.184792495     -4107.953609372       878.646356006
      4500         4500.000000         0.706213094       466.048466023     -4108.185660780     -4107.953623856       999.895366631
      4501         4501.000000         0.713160107       470.632981876     -4108.186502227     -4107.953629341      1072.956528211
      4502         4502.000000         0.712538814       470.222974337     -4108.187316919     -4107.953628240      1202.214060447
      4503         4503.000000         0.709189811       468.012879393     -4108.188095209     -4107.953623222      1384.964414169
      4504         4504.000000         0.713419801       470.804360723     -4108.188849744     -4107.953632547      1717.381154815
      4505         4505.000000         0.704189757       464.713213181     -4108.189563708     -4107.953635912      2217.613031432
      4506         4506.000000         0.710589399       468.936504280     -4108.190240874     -4107.953635337      3550.812466518
      4507         4507.000000         0.710924200       469.157448253     -4108.190877134     -4107.953630265      7154.407536288
      4508         4508.000000         0.706606632       466.308172186     -4108.191479504     -4107.953636294      5785.595709009
      4509         4509.000000         0.708999336       467.887180150     -4108.192034565     -4107.953637456      2863.377440166
      4510         4510.000000         0.704985360       465.238252639     -4108.192542180     -4107.953650085      8554.259687815
      4511         4511.000000         0.705960519       465.881785106     -4108.192999240     -4107.953678846      1940.650403852
      4512         4512.000000         0.702144855       463.363729237     -4108.193431422     -4107.953720181      2106.511829535
      4513         4513.000000         0.696469704       459.618548626     -4108.193808192     -4107.953724253      2053.486732085
      4514         4514.000000         0.702405217       463.535548677     -4108.194138831     -4107.953714226      1883.021649703
      4515         4515.000000         0.704466564       464.895885518     -4108.194413619     -4107.953712075      1691.452571228
      4516         4516.000000         0.706554226       466.273588116     -4108.194661454     -4107.953747313      1541.183119633
      4517         4517.000000         0.710564407       468.920011619     -4108.194857425     -4107.953763764      1367.720384769
      4518         4518.000000         0.711335449       469.428842388     -4108.195001251     -4107.953756982      1302.012367516
      4519         4519.000000         0.723278335       477.310264254     -4108.195084311     -4107.953746087      1635.567921113
      4520         4520.000000         0.727636250       480.186166421     -4108.195132899     -4107.953770145      2597.111730248
      4521         4521.000000         0.726195137       479.235138629     -4108.195120474     -4107.953785142      2373.188604216
      4522         4522.000000         0.738121565       487.105699487     -4108.195051454     -4107.953782845      1273.634153783
      4523         4523.000000         0.741654140       489.436938272     -4108.194917799     -4107.953764205      1401.558694832
      4524         4524.000000         0.737888213       486.951704447     -4108.194742015     -4107.953765724      1524.122689694
      4525         4525.000000         0.738915643       487.629732500     -4108.194500995     -4107.953768618      1687.223397537
      4526         4526.000000         0.732949420       483.692466051     -4108.194202347     -4107.953784137      4653.678355861
      4527         4527.000000         0.733228315       483.876516264     -4108.193861771     -4107.953815510      2851.338457651
      4528         4528.000000         0.736305795       485.907425717     -4108.193456165     -4107.953801215      4057.862015530
      4529         4529.000000         0.738934290       487.642037811     -4108.193018702     -4107.953789066      4969.328993228
      4530         4530.000000         0.732453709       483.365333735     -4108.192524117     -4107.953786368      2751.801306218
      4531         4531.000000         0.731377723       482.655262082     -4108.191984912     -4107.953796198      2297.614352124
      4532         4532.000000         0.730770167       482.254320266     -4108.191401224     -4107.953797722      1913.797414779
      4533         4533.000000         0.725795420       478.971354347     -4108.190772167     -4107.953787015      1887.264256351
      4534         4534.000000         0.721648376       476.234612236     -4108.190116589     -4107.953788559      2122.311346639
      4535         4535.000000         0.730676147       482.192273773     -4108.189418680     -4107.953791362      1873.791012849
      4536         4536.000000         0.733413438       483.998683617     -4108.188680617     -4107.953794707      1466.313025070
      4537         4537.000000         0.729240999       481.245181928     -4108.187901312     -4107.953788220      1134.807774187
      4538         4538.000000         0.727910501       480.367151747     -4108.187097857     -4107.953785287       922.121181825
      4539         4539.000000         0.722336696       476.688852621     -4108.186267705     -4107.953781713       818.727199409
      4540         4540.000000         0.723208654       477.264280105     -4108.185413599     -4107.953782322       786.128166136
      4541         4541.000000         0.726208648       479.244054676     -4108.184527156     -4107.953778598       711.510872974
      4542         4542.000000         0.724176635       477.903075946     -4108.183622943     -4107.953778191       716.529008338
      4543         4543.000000         0.725756060       478.945380056     -4108.182691600     -4107.953775497       813.142023443
      4544         4544.000000         0.722550556       476.829984028     -4108.181744144     -4107.953775650       951.575002002
      4545         4545.000000         0.721805186       476.338094990     -4108.180776733     -4107.953772647      1198.262687351
      4546         4546.000000         0.715797502       472.373467393     -4108.179803800     -4107.953774377      1912.107622661
      4547         4547.000000         0.714590254       471.576773119     -4108.178819414     -4107.953772308      2468.385796549
      4548         4548.000000         0.706492669       466.232965397     -4108.177830635     -4107.953771820       561.775166949
      4549         4549.000000         0.706378336       466.157513788     -4108.176837430     -4107.953769688       554.205946266
      4550         4550.000000         0.709218983       468.032131021     -4108.175846387     -4107.953773330       568.913693745
      4551         4551.000000         0.708838111       467.780783420     -4108.174853234     -4107.953772531       555.117307467
      4552         4552.000000         0.708669394       467.669442540     -4108.173862011     -4107.953771753       559.823471329
      4553         4553.000000         0.709325187       468.102217653     -4108.172870224     -4107.953769801       567.965626501
      4554         4554.000000         0.711607311       469.608251019     -4108.171886449     -4107.953774885       603.342667444
      4555         4555.000000         0.709984935       468.537602619     -4108.170901448     -4107.953775356       623.204395976
      4556         4556.000000         0.707346708       466.796567674     -4108.169925971     -4107.953774153      1911.250675792
      4557         4557.000000         0.711729812       469.689092664     -4108.168958748     -4107.953772119      1337.272482173
      4558         4558.000000         0.703050492       463.961382529     -4108.168010681     -4107.953777778       840.114010353
      4559         4559.000000         0.701694796       463.066723079     -4108.167077383     -4107.953778257      1005.006551819
      4560         4560.000000         0.701304753       462.809323840     -4108.166164027     -4107.953777264      2586.597503876
      4561         4561.000000         0.711090515       469.267203996     -4108.165263308     -4107.953775619      7061.664532039
      4562         4562.000000         0.714425305       471.467918524     -4108.164384538     -4107.953782377       993.639162690
      4563         4563.000000         0.713733319       471.011259074     -4108.163521284     -4107.953783216      1031.463159230
      4564         4564.000000         0.713063866       470.569469836     -4108.162683445     -4107.953782407      1066.880185406
      4565         4565.000000         0.716829572       473.054557350     -4108.161864579     -4107.953780082      1532.243727823
      4566         4566.000000         0.714591227       471.577415079     -4108.161077658     -4107.953787149      2814.170764533
      4567         4567.000000         0.718133885       473.915307536     -4108.160312446     -4107.953788489       992.758994356
      4568         4568.000000         0.714586166       471.574075182     -4108.159576539     -4107.953787845       941.602787493
      4569         4569.000000         0.710429460       468.830956372     -4108.158868675     -4107.953784740       863.354108709
      4570         4570.000000         0.709444288       468.180815454     -4108.158203595     -4107.953792087       825.717879169
      4571         4571.000000         0.705972781       465.889877174     -4108.157572126     -4107.953792678       750.548350321
      4572         4572.000000         0.701311739       462.813934198     -4108.156979894     -4107.953791871       751.479726612
      4573         4573.000000         0.699414812       461.562102411     -4108.156423404     -4107.953787652       787.453562728
      4574         4574.000000         0.694999402       458.648258292     -4108.155918461     -4107.953795900       812.988780838
      4575         4575.000000         0.688847376       454.588375276     -4108.155454096     -4107.953796229       825.965692333
      4576         4576.000000         0.681791110       449.931761242     -4108.155039052     -4107.953795496       857.402149782
      4577         4577.000000         0.672346816       443.699224900     -4108.154669086     -4107.953789854       870.528661996
      4578         4578.000000         0.666145841       439.607039507     -4108.154368195     -4107.953799209       914.056429667
      4579         4579.000000         0.660242779       435.711454880     -4108.154119125     -4107.953799303       952.501109570
      4580         4580.000000         0.667088251       440.228960470     -4108.153926112     -4107.953798703       989.095899385
      4581         4581.000000         0.670020156       442.163801282     -4108.153779342     -4107.953791164       976.975858971
      4582         4582.000000         0.670035298       442.173793437     -4108.153706451     -4107.953801785      1037.147603824
      4583         4583.000000         0.668540660       441.187443304     -4108.153680214     -4107.953802346      1108.581237098
      4584         4584.000000         0.671959437       443.443583611     -4108.153702323     -4107.953813633      3316.496953138
      4585         4585.000000         0.664089209       438.249814584     -4108.153772231     -4107.953839469      1764.038071435
      4586         4586.000000         0.657819820       434.112480704     -4108.153912550     -4107.953875345      2738.018681539
      4587         4587.000000         0.658705229       434.696785344     -4108.154098574     -4107.953878790      2529.010267055
      4588         4588.000000         0.658387180       434.486896377     -4108.154334088     -4107.953870300      1323.286295748
      4589         4589.000000         0.657717719       434.045101385     -4108.154610576     -4107.953869841      1058.907409472
      4590         4590.000000         0.658266538       434.407281735     -4108.154953758     -4107.953901481      1262.439812724
      4591         4591.000000         0.660377142       435.800124236     -4108.155340961     -4107.953913420      1377.615285660
      4592         4592.000000         0.657746068       434.063810197     -4108.155772260     -4107.953908750      1022.653884243
      4593         4593.000000         0.659965974       435.528783882     -4108.156237833     -4107.953907206      1024.243759954
      4594         4594.000000         0.655906078       432.849552227     -4108.156761045     -4107.953937881      1005.412916541
      4595         4595.000000         0.660018714       435.563588181     -4108.157319909     -4107.953950602       989.310837869
      4596         4596.000000         0.662161352       436.977571405     -4108.157914605     -4107.953947044       979.678588531
      4597         4597.000000         0.664215745       438.333318809     -4108.158542569     -4107.953958148      2664.329056346
      4598         4598.000000         0.668553479       441.195902930     -4108.159199458     -4107.953983695       948.430188287
      4599         4599.000000         0.660900554       436.145537326     -4108.159897537     -4107.954017899       941.052644880
      4600         4600.000000         0.666334967       439.731848834     -4108.160614036     -4107.954020921       947.774508981
      4601         4601.000000         0.667097846       440.235292719     -4108.161355502     -4107.954013370       906.723798095
      4602         4602.000000         0.670116602       442.227448376     -4108.162110481     -4107.954016017       885.086566617
      4603         4603.000000         0.676286244       446.298956322     -4108.162899065     -4107.954047092       900.831499314
      4604         4604.000000         0.684402593       451.655147099     -4108.163701247     -4107.954057169       918.105062773
      4605         4605.000000         0.682744302       450.560797319     -4108.164514061     -4107.954052836       905.257581066
      4606         4606.000000         0.685665450       452.488539536     -4108.165321471     -4107.954058158       901.682627261
      4607         4607.000000         0.686787831       453.229227522     -4108.166150300     -4107.954093635       884.551958335
      4608         4608.000000         0.685812288       452.585441413     -4108.166969711     -4107.954102161       871.030746253
      4609         4609.000000         0.685405618       452.317069702     -4108.167783718     -4107.954092925       974.924754988
      4610         4610.000000         0.683477509       451.044660174     -4108.168579919     -4107.954089658      1151.755330339
      4611         4611.000000         0.684786277       451.908349789     -4108.169388348     -4107.954116837      1411.683059887
      4612         4612.000000         0.684438993       451.679168414     -4108.170178688     -4107.954122602      1849.998700360
      4613         4613.000000         0.690249577       455.513724216     -4108.170957606     -4107.954117860      2352.531729552
      4614         4614.000000         0.695642744       459.072816489     -4108.171719497     -4107.954111396      2336.346225706
      4615         4615.000000         0.695266404       458.824459735     -4108.172477487     -4107.954131395      1854.153584786
      4616         4616.000000         0.692094310       456.731111916     -4108.173210195     -4107.954138094      1409.684060241
      4617         4617.000000         0.694602493       458.386327540     -4108.173918217     -4107.954134971      1104.008039248
      4618         4618.000000         0.704583331       464.972942824     -4108.174601637     -4107.954128167       906.022542558
      4619         4619.000000         0.703217394       464.071525573     -4108.175269361     -4107.954138349       786.863332977
      4620         4620.000000         0.700522598       462.293159485     -4108.175902280     -4107.954143239       707.354177058
      4621         4621.000000         0.701960988       463.242390638     -4108.176502959     -4107.954143411      1064.348418442
      4622         4622.000000         0.697456787       460.269950297     -4108.177066119     -4107.954138615      1029.319169980
      4623         4623.000000         0.696655444       459.741123564     -4108.177604293     -4107.954142863       643.792372078
      4624         4624.000000         0.699439650       461.578493425     -4108.178104695     -4107.954144468       615.115887183
      4625         4625.000000         0.701859038       463.175111063     -4108.178569043     -4107.954145212       689.297353614
      4626         4626.000000         0.704091941       464.648661670     -4108.178994267     -4107.954143042       812.612153628
      4627         4627.000000         0.706433752       466.194084133     -4108.179382092     -4107.954157430      4280.749398468
      4628         4628.000000         0.717844953       473.724633605     -4108.179724473     -4107.954186353      1079.979346385
      4629         4629.000000         0.722907749       477.065705142     -4108.180039139     -4107.954224762      1367.389288511
      4630         4630.000000         0.721333240       476.026645796     -4108.180298517     -4107.954228266      1626.560083304
      4631         4631.000000         0.725586611       478.833556353     -4108.180507276     -4107.954218900      1831.188679461
      4632         4632.000000         0.732060239       483.105672146     -4108.180655809     -4107.954220084      2088.558941785
      4633         4633.000000         0.732075251       483.115579269     -4108.180769154     -4107.954254548      2478.432027463
      4634         4634.000000         0.740078722       488.397278432     -4108.180822688     -4107.954264954      3743.307336409
      4635         4635.000000         0.746950104       492.931883358     -4108.180819078     -4107.954259694      3377.426395697
      4636         4636.000000         0.739530645       488.035588320     -4108.180747086     -4107.954264106      7141.822259109
      4637         4637.000000         0.732113989       483.141143360     -4108.180640735     -4107.954287532      6034.179693419
      4638         4638.000000         0.734636331       484.805703044     -4108.180467888     -4107.954313298      2491.847994219
      4639         4639.000000         0.726074746       479.155689151     -4108.180259572     -4107.954345899      3284.430597637
      4640         4640.000000         0.721940327       476.427277854     -4108.179998070     -4107.954348144      5559.144644996
      4641         4641.000000         0.721991561       476.461088495     -4108.179689718     -4107.954339230      1728.626622032
      4642         4642.000000         0.730660685       482.182070219     -4108.179327520     -4107.954340243      1768.854367133
      4643         4643.000000         0.726588454       479.494698698     -4108.178931937     -4107.954369341      1869.182089814
      4644         4644.000000         0.727419415       480.043071340     -4108.178488715     -4107.954379866      1983.792830744
      4645         4645.000000         0.727184014       479.887724116     -4108.178001351     -4107.954373047      2028.169863246
      4646         4646.000000         0.726989214       479.759170549     -4108.177466034     -4107.954369788      1933.875716154
      4647         4647.000000         0.730565132       482.119012080     -4108.176905196     -4107.954397824      1904.536528905
      4648         4648.000000         0.724932844       478.402118334     -4108.176305269     -4107.954410533      1828.943425644
      4649         4649.000000         0.724692258       478.243349369     -4108.175660620     -4107.954423788      4388.093628058
      4650         4650.000000         0.716350104       472.738144119     -4108.174985829     -4107.954455044      1552.520193868
      4651         4651.000000         0.713361862       470.766124787     -4108.174303345     -4107.954497538      2733.453779862
      4652         4652.000000         0.707955080       467.198048009     -4108.173587423     -4107.954501760      1327.991889300
      4653         4653.000000         0.704117184       464.665320448     -4108.172850485     -4107.954486091      1190.159417229
      4654         4654.000000         0.693331948       457.547861292     -4108.172091406     -4107.954473287      1051.738062342
      4655         4655.000000         0.698251437       460.794360624     -4108.171340129     -4107.954498473       998.912116832
      4656         4656.000000         0.697338560       460.191929789     -4108.170565847     -4107.954511847       978.056180271
      4657         4657.000000         0.703440179       464.218546963     -4108.169777370     -4107.954525030      2776.397061397
      4658         4658.000000         0.700090345       462.007903972     -4108.168974677     -4107.954553406       807.224505871
      4659         4659.000000         0.699224050       461.436213469     -4108.168187293     -4107.954597052       807.173625175
      4660         4660.000000         0.700330025       462.166075385     -4108.167383512     -4107.954601949       798.228060663
      4661         4661.000000         0.704251549       464.753991410     -4108.166573709     -4107.954587369       833.768939126
      4662         4662.000000         0.696801669       459.837620932     -4108.165752654     -4107.954574933       972.294455778
      4663         4663.000000         0.699042350       461.316304971     -4108.164953861     -4107.954596484      1230.752970726
      4664         4664.000000         0.698704361       461.093256922     -4108.164148768     -4107.954608945      1695.848656048
      4665         4665.000000         0.703265120       464.103021336     -4108.163341836     -4107.954607743      3001.452729849
      4666         4666.000000         0.705147512       465.345260805     -4108.162526774     -4107.954593373      3599.510366501
      4667         4667.000000         0.704040727       464.614864484     -4108.161733115     -4107.954600796      3884.167171514
      4668         4668.000000         0.705216563       465.390829462     -4108.160934535     -4107.954605086      3715.299228280
      4669         4669.000000         0.704659589       465.023268051     -4108.160137479     -4107.954608197      2282.527812924
      4670         4670.000000         0.698209644       460.766780671     -4108.159343538     -4107.954600233      5364.851409994
      4671         4671.000000         0.702819865       463.809185845     -4108.158566655     -4107.954601661      2630.835474395
      4672         4672.000000         0.700880439       462.529308108     -4108.157788708     -4107.954600581       812.609803776
      4673         4673.000000         0.693887167       457.914265241     -4108.157022919     -4107.954602359       752.561354032
      4674         4674.000000         0.693759056       457.829721351     -4108.156260831     -4107.954596584       722.364517205
      4675         4675.000000         0.692714234       457.140216228     -4108.155516261     -4107.954600357       702.723523985
      4676         4676.000000         0.689583620       455.074242317     -4108.154774149     -4107.954599983       726.487687949
      4677         4677.000000         0.695756233       459.147710508     -4108.154038466     -4107.954601141       765.189681194
      4678         4678.000000         0.698863276       461.198129386     -4108.153302535     -4107.954596163       820.269410580
      4679         4679.000000         0.702822243       463.810754797     -4108.152578403     -4107.954598770       940.912690208
      4680         4680.000000         0.701004124       462.610931082     -4108.151852004     -4107.954598386      1072.730080449
      4681         4681.000000         0.699202829       461.422209238     -4108.151127256     -4107.954599055      1237.200669963
      4682         4682.000000         0.697547583       460.329869483     -4108.150400064     -4107.954595001      1523.462104778
      4683         4683.000000         0.693857480       457.894673883     -4108.149683112     -4107.954596857      2690.514297046
      4684         4684.000000         0.694401479       458.253672864     -4108.148964671     -4107.954596657      1314.790411778
      4685         4685.000000         0.691140655       456.101770362     -4108.148249990     -4107.954597454      1198.906472389
      4686         4686.000000         0.693388995       457.585508404     -4108.147532310     -4107.954595017      1290.073763284
      4687         4687.000000         0.696821836       459.850929910     -4108.146821557     -4107.954596877      1368.458175155