#     Step Nr.          Time[fs]        Kin.[a.u.]          Temp[K]            Pot.[a.u.]        Cons Qty[a.u.]        UsedTime[s]
      4943         4943.000000         0.757998561       500.223048698     -4127.054282871     -4127.127827460      9302.170048077
      4944         4944.000000         0.766052874       505.538299834     -4127.054279358     -4127.127928815      2223.698585609
      4945         4945.000000         0.763410028       503.794216721     -4127.054302402     -4127.128026481      1536.290682603
      4946         4946.000000         0.768233004       506.977024566     -4127.054358803     -4127.128105562      1833.488112415
      4947         4947.000000         0.761146879       502.300705642     -4127.054460806     -4127.128140569      7162.724800344
      4948         4948.000000         0.757642652       499.988175136     -4127.054621930     -4127.128110212      2777.072428987
      4949         4949.000000         0.765403355       505.109665655     -4127.054857713     -4127.128035423      4546.927055774
      4950         4950.000000         0.759353454       501.117177595     -4127.055178620     -4127.127969802       837.351504811
      4951         4951.000000         0.751621537       496.014683592     -4127.055603539     -4127.127962424       758.745443614
      4952         4952.000000         0.751362566       495.843782098     -4127.056132998     -4127.128005230       981.075009616
      4953         4953.000000         0.751082973       495.659271483     -4127.056739675     -4127.128042155      1278.420678920
      4954         4954.000000         0.752559807       496.633872980     -4127.057400639     -4127.128040277      1215.517458018
      4955         4955.000000         0.752176237       496.380745122     -4127.058132845     -4127.128020916       935.185552116
      4956         4956.000000         0.753880012       497.505110200     -4127.058969117     -4127.128012688       782.822739420
      4943         4943.000000         0.757998561       500.223048698     -4127.054282871     -4127.127827460      9373.411340576
      4944         4944.000000         0.766052874       505.538299834     -4127.054279358     -4127.127928815      2222.794805293
      4945         4945.000000         0.763410028       503.794216721     -4127.054302402     -4127.128026481      1543.341343643
      4946         4946.000000         0.768233004       506.977024566     -4127.054358803     -4127.128105562      1840.868593613
      4947         4947.000000         0.761146879       502.300705642     -4127.054460806     -4127.128140569      7258.290582696
      4948         4948.000000         0.757642652       499.988175136     -4127.054621930     -4127.128110212      2793.796108370
      4949         4949.000000         0.765403355       505.109665655     -4127.054857713     -4127.128035423      4538.961622895
      4950         4950.000000         0.759353454       501.117177595     -4127.055178620     -4127.127969802       831.521597088
      4951         4951.000000         0.751621537       496.014683592     -4127.055603539     -4127.127962424       753.901882308
      4952         4952.000000         0.751362566       495.843782098     -4127.056132998     -4127.128005230       980.660466241
      4953         4953.000000         0.751082973       495.659271483     -4127.056739675     -4127.128042155      1267.581035984
      4954         4954.000000         0.752559807       496.633872980     -4127.057400639     -4127.128040277      1229.396567569
      4955         4955.000000         0.752176237       496.380745122     -4127.058132845     -4127.128020916       936.588583704
      4956         4956.000000         0.753880012       497.505110200     -4127.058969117     -4127.128012688       784.951367249
      4957         4957.000000         0.755407899       498.513403271     -4127.059912307     -4127.128016464       809.721433870
      4958         4958.000000         0.749966351       494.922383036     -4127.060967240     -4127.128028950      1164.328530040
      4959         4959.000000         0.746622154       492.715460439     -4127.062140542     -4127.128042524      1290.695678191
      4960         4960.000000         0.747263662       493.138808308     -4127.063409123     -4127.128041213      1086.718081287
      4961         4961.000000         0.760885661       502.128321458     -4127.064755894     -4127.128016240      1758.769866824
      4962         4962.000000         0.766813241       506.040086388     -4127.066223980     -4127.128027546      1830.321422404
      4963         4963.000000         0.761000493       502.204101698     -4127.067745333     -4127.128004340      5727.558056123
      4964         4964.000000         0.758951772       500.852097071     -4127.069403445     -4127.128027073      7186.036479697
      4965         4965.000000         0.767484054       506.482773069     -4127.071134494     -4127.128040620      4396.671816071
      4966         4966.000000         0.779481572       514.400248876     -4127.072934955     -4127.128032707      6488.461480506
      4967         4967.000000         0.778177797       513.539853079     -4127.074787150     -4127.128006893      3582.941710829
      4968         4968.000000         0.783262172       516.895165335     -4127.076699335     -4127.127966043      2170.643848819
      4969         4969.000000         0.782740569       516.550945697     -4127.078676099     -4127.127934014      1772.031804853
      4970         4970.000000         0.787381135       519.613376678     -4127.080691113     -4127.127932420      2019.117392989
      4971         4971.000000         0.788044358       520.051054768     -4127.082738986     -4127.127964901      3686.624238073
      4972         4972.000000         0.786959408       519.335067807     -4127.084817156     -4127.128033809      2652.865229819
      4973         4973.000000         0.786951712       519.329989081     -4127.086886909     -4127.128041641      6717.378130079
      4974         4974.000000         0.792202036       522.794814884     -4127.088997271     -4127.128126251      2608.742872401
      4975         4975.000000         0.787901423       519.956728318     -4127.091061551     -4127.128205971      2233.670908410
      4976         4976.000000         0.787673794       519.806509910     -4127.093081364     -4127.128269778      4433.475279582
      4977         4977.000000         0.788528160       520.370328538     -4127.095080954     -4127.128306302      1542.850290262
      4978         4978.000000         0.787591129       519.751956856     -4127.097048895     -4127.128298480      1311.622514275
      4979         4979.000000         0.793023144       523.336685591     -4127.098955679     -4127.128247518      1147.890353261
      4980         4980.000000         0.803032827       529.942336763     -4127.100807749     -4127.128189457      1047.908288111
      4981         4981.000000         0.796641843       525.724759586     -4127.102592006     -4127.128171123      1951.819479375
      4982         4982.000000         0.790760211       521.843317290     -4127.104259410     -4127.128160043      5824.056333687
      4983         4983.000000         0.790716226       521.814290239     -4127.105906550     -4127.128245834       752.115144249
      4984         4984.000000         0.802410631       529.531733288     -4127.107444465     -4127.128330918       692.694331968
      4985         4985.000000         0.808477928       533.535701191     -4127.108878494     -4127.128407069       649.404428767
      4986         4986.000000         0.813216598       536.662873546     -4127.110199789     -4127.128452724       629.563685231
      4987         4987.000000         0.812584355       536.245639453     -4127.111407534     -4127.128442408       721.807819132
      4988         4988.000000         0.807418510       532.836563579     -4127.112493208     -4127.128381301       792.701185727
      4989         4989.000000         0.802953227       529.889806954     -4127.113468465     -4127.128307538       842.077042341
      4990         4990.000000         0.807826033       533.105498737     -4127.114352852     -4127.128276168       867.054339036
      4991         4991.000000         0.812805203       536.391383197     -4127.115145937     -4127.128300620      1099.871491114
      4992         4992.000000         0.814870592       537.754386885     -4127.115831358     -4127.128345646      1465.404507789
      4993         4993.000000         0.815327412       538.055854553     -4127.116398135     -4127.128379456      2442.245563163
      4994         4994.000000         0.818304425       540.020463023     -4127.116846161     -4127.128385554      2902.560730538
      4995         4995.000000         0.824901109       544.373787333     -4127.117178481     -4127.128362780       950.136181779
      4996         4996.000000         0.824061030       543.819397310     -4127.117403801     -4127.128321845      1211.639138975
      4997         4997.000000         0.831073399       548.447042501     -4127.117556952     -4127.128300013      1430.463388737
      4998         4998.000000         0.833936340       550.336372121     -4127.117648115     -4127.128310722      1485.384438859
      4999         4999.000000         0.833338720       549.941987082     -4127.117653818     -4127.128322477      1242.506150869
      5000         5000.000000         0.829465058       547.385656466     -4127.117568096     -4127.128323509      1027.985588104
      5001         5001.000000         0.836987566       552.349955830     -4127.117400622     -4127.128328631       838.929538174
      5002         5002.000000         0.830143135       547.833137375     -4127.117151175     -4127.128334580       724.313238272
      5003         5003.000000         0.826926214       545.710206755     -4127.116826334     -4127.128321070       666.329420685
      5004         5004.000000         0.834434549       550.665153094     -4127.116463071     -4127.128304065       788.205803054
      5005         5005.000000         0.833387917       549.974453410     -4127.116080072     -4127.128308661       905.424984378
      5006         5006.000000         0.825272903       544.619143755     -4127.115657287     -4127.128323277      1199.236195068
      5007         5007.000000         0.824444525       544.072475459     -4127.115195559     -4127.128340969      1996.322547277
      5008         5008.000000         0.825951525       545.066984433     -4127.114697335     -4127.128363384      3300.395813929
      5009         5009.000000         0.823764813       543.623915666     -4127.114170828     -4127.128386020      7094.636138164
      5010         5010.000000         0.827777793       546.272186213     -4127.113611649     -4127.128384496      1259.842522697
      5011         5011.000000         0.827846130       546.317283536     -4127.113016437     -4127.128348046      1228.819770002
      5012         5012.000000         0.823172530       543.233053002     -4127.112402911     -4127.128304596      1178.371459559
      5013         5013.000000         0.816983417       539.148695640     -4127.111788063     -4127.128292716      1072.934408057
      5014         5014.000000         0.818869785       540.393559260     -4127.111157459     -4127.128312576      1438.954102207
      5015         5015.000000         0.812677297       536.306974702     -4127.110493824     -4127.128338323      2048.364475000
      5016         5016.000000         0.819589272       540.868367595     -4127.109809659     -4127.128364677      1115.169495703
      5017         5017.000000         0.823689797       543.574411057     -4127.109098401     -4127.128380817      1908.919820755
      5018         5018.000000         0.817807988       539.692851824     -4127.108340788     -4127.128360827      1837.420702285
      5019         5019.000000         0.814676972       537.626612228     -4127.107537024     -4127.128308797       620.085378715
      5020         5020.000000         0.821699182       542.260752124     -4127.106723117     -4127.128287321       698.143261342
      5021         5021.000000         0.815077742       537.891091137     -4127.105907227     -4127.128322039       822.806035186
      5022         5022.000000         0.813492800       536.845145964     -4127.105042294     -4127.128359187       571.615356504
      5023         5023.000000         0.809939776       534.500412874     -4127.104116781     -4127.128371279       578.368784167
      5024         5024.000000         0.806878897       532.480459121     -4127.103149915     -4127.128363460       571.636717508
      5025         5025.000000         0.807102576       532.628070664     -4127.102149454     -4127.128346253       567.185826390
      5026         5026.000000         0.809262095       534.053193672     -4127.101112306     -4127.128335590       572.281709645
      5027         5027.000000         0.805595565       531.633554690     -4127.100040128     -4127.128337485       583.728161650
      5028         5028.000000         0.803679387       530.369018921     -4127.098914637     -4127.128341969       684.946362513
      5029         5029.000000         0.799859392       527.848103936     -4127.097747667     -4127.128351333       811.152345627
      5030         5030.000000         0.806169355       532.012213699     -4127.096536216     -4127.128349216      1032.981061097
      5031         5031.000000         0.809926584       534.491707169     -4127.095267485     -4127.128340737      1541.001433468
      5032         5032.000000         0.806827954       532.446840393     -4127.093950965     -4127.128346404      2525.387676244
      5033         5033.000000         0.812231195       536.012579957     -4127.092575931     -4127.128357075      1402.768290203
      5034         5034.000000         0.812490017       536.183383551     -4127.091125579     -4127.128355618      1458.990270831
      5035         5035.000000         0.815882728       538.422322386     -4127.089629756     -4127.128366359      1358.667433455
      5036         5036.000000         0.799462900       527.586448919     -4127.088123630     -4127.128393599      1170.597266817
      5037         5037.000000         0.804067701       530.625277348     -4127.086572981     -4127.128387998      2577.323017806
      5038         5038.000000         0.799450291       527.578127608     -4127.084960186     -4127.128335000      1502.569061837
      5039         5039.000000         0.801424487       528.880951179     -4127.083348075     -4127.128302133      2022.514795562
      5040         5040.000000         0.793777876       523.834753272     -4127.081769995     -4127.128315990      1456.061449885
      5041         5041.000000         0.781445540       515.696322132     -4127.080219030     -4127.128344054      6551.552114401
      5042         5042.000000         0.782031231       516.082835384     -4127.078687128     -4127.128361409       834.027125258
      5043         5043.000000         0.778844779       513.980012244     -4127.077165327     -4127.128351681       912.334396857
      5044         5044.000000         0.766816010       506.041913535     -4127.075647391     -4127.128308179      1047.476370587
      5045         5045.000000         0.759417051       501.159146993     -4127.074206233     -4127.128281415      1205.997501409
      5046         5046.000000         0.751107334       495.675348022     -4127.072880101     -4127.128289436      1427.572520226
      5047         5047.000000         0.754745786       498.076457481     -4127.071641246     -4127.128300648      1716.109753586
      5048         5048.000000         0.750912612       495.546845721     -4127.070482639     -4127.128320105      2155.062084813
      5049         5049.000000         0.755647010       498.671198669     -4127.069402431     -4127.128341471      4645.885477557
      5050         5050.000000         0.747995441       493.621728435     -4127.068390746     -4127.128348141      6094.263964032
      5051         5051.000000         0.744006148       490.989089534     -4127.067453201     -4127.128339537      2915.103023536
      5052         5052.000000         0.744964597       491.621595106     -4127.066582390     -4127.128310937      7050.378410899
      5053         5053.000000         0.742750809       490.160658798     -4127.065803511     -4127.128290826       971.942592159
      5054         5054.000000         0.735207146       485.182398680     -4127.065136351     -4127.128296862      1607.338364468
      5055         5055.000000         0.744089430       491.044049837     -4127.064553012     -4127.128305763       804.948151242
      5056         5056.000000         0.745666571       492.084846490     -4127.064039383     -4127.128324974       803.523673054
      5057         5057.000000         0.750497459       495.272875585     -4127.063574989     -4127.128343877       903.561670236
      5058         5058.000000         0.752708778       496.732182610     -4127.063123390     -4127.128327622      1243.236183705
      5059         5059.000000         0.749987901       494.936604732     -4127.062716494     -4127.128305716      2198.898068745
      5060         5060.000000         0.740294048       488.539377827     -4127.062397569     -4127.128320136       757.457167304
      5061         5061.000000         0.741368891       489.248694603     -4127.062129244     -4127.128339410       785.781524531
      5062         5062.000000         0.739740556       488.174114025     -4127.061869566     -4127.128329853      1018.643538033
      5063         5063.000000         0.736583778       486.090873879     -4127.061656349     -4127.128330867      1722.837786404
      5064         5064.000000         0.747824006       493.508593806     -4127.061488448     -4127.128343376      2163.686387824
      5065         5065.000000         0.754249122       497.748695455     -4127.061313011     -4127.128327624      1230.576839753
      5066         5066.000000         0.753939299       497.544235570     -4127.061149359     -4127.128313141      1693.701980057
      5067         5067.000000         0.750301843       495.143783386     -4127.061025006     -4127.128336040      3397.256691960
      5068         5068.000000         0.752271796       496.443806771     -4127.060897342     -4127.128349533      3232.506492690
      5069         5069.000000         0.753780838       497.439662825     -4127.060777896     -4127.128359217      3074.412638747
      5070         5070.000000         0.746707781       492.771967697     -4127.060659701     -4127.128363009      1217.736776611
      5071         5071.000000         0.753828670       497.471228702     -4127.060520679     -4127.128342327      2188.220858038
      5072         5072.000000         0.748180796       493.744048827     -4127.060389463     -4127.128322797      2671.579774318
      5073         5073.000000         0.740285378       488.533656278     -4127.060289362     -4127.128325692      6980.334785666
      5074         5074.000000         0.740135039       488.434443557     -4127.060212188     -4127.128335804      3820.476967598
      5075         5075.000000         0.733270857       483.904590892     -4127.060136899     -4127.128320016      1625.246941590
      5076         5076.000000         0.726828637       479.653201543     -4127.060175483     -4127.128383534      1122.811590067
      5077         5077.000000         0.734316137       484.594398432     -4127.060221586     -4127.128415408       891.824260562
      5078         5078.000000         0.729096673       481.149937972     -4127.060206803     -4127.128345506       958.866216212
      5079         5079.000000         0.721376277       476.055046466     -4127.060314763     -4127.128354083      1624.617141081
      5080         5080.000000         0.719155372       474.589413862     -4127.060473419     -4127.128373912      2530.723236552
      5081         5081.000000         0.707372289       466.813449410     -4127.060714396     -4127.128449472      1200.919122549
      5082         5082.000000         0.710003158       468.549628413     -4127.060997798     -4127.128527035      1358.941569967
      5083         5083.000000         0.706931714       466.522702069     -4127.061333058     -4127.128594627      1219.472384432
      5084         5084.000000         0.699359265       461.525445190     -4127.061729077     -4127.128627864      1372.105687169
      5085         5085.000000         0.705323170       465.461182134     -4127.062184482     -4127.128597205      1880.160814016
      5086         5086.000000         0.708118998       467.306222019     -4127.062722229     -4127.128538636      2722.354079322
      5087         5087.000000         0.711970002       469.847600059     -4127.063345249     -4127.128507290      2622.488541821
      5088         5088.000000         0.713803480       471.057560474     -4127.064033267     -4127.128524231      1811.046348959
      5089         5089.000000         0.707638571       466.989175773     -4127.064770794     -4127.128576171      1690.844540730
      5090         5090.000000         0.712773488       470.377841684     -4127.065543281     -4127.128618230      1944.062820045
      5091         5091.000000         0.723318512       477.336778107     -4127.066338827     -4127.128610117      2365.656901258
      5092         5092.000000         0.718734119       474.311417699     -4127.067145634     -4127.128548962      2915.526630624
      5093         5093.000000         0.722722938       476.943743521     -4127.068034646     -4127.128548449      3695.256654239
      5094         5094.000000         0.724691931       478.243133353     -4127.068947786     -4127.128596436      4606.280764744
      5095         5095.000000         0.732649351       483.494442485     -4127.069836826     -4127.128629060      3691.186487506
      5096         5096.000000         0.732823633       483.609456246     -4127.070706359     -4127.128617784      3550.350204679
      5097         5097.000000         0.734447291       484.680950183     -4127.071584928     -4127.128567083      2757.657343735
      5098         5098.000000         0.731833821       482.956252915     -4127.072470905     -4127.128501130      2273.888694854
      5099         5099.000000         0.739472280       487.997071651     -4127.073376469     -4127.128473138      2050.823097000
      5100         5100.000000         0.739603625       488.083749887     -4127.074286635     -4127.128512445      2625.926519094
      5101         5101.000000         0.741928487       489.617986837     -4127.075182582     -4127.128598399      1734.774096032
      5102         5102.000000         0.737140042       486.457966864     -4127.076052284     -4127.128673376      1450.042944906
      5103         5103.000000         0.743545868       490.685339041     -4127.076865012     -4127.128662645      2397.505151959
      5104         5104.000000         0.737991858       487.020102664     -4127.077618805     -4127.128571446      4891.401093991
      5105         5105.000000         0.738884431       487.609135007     -4127.078379568     -4127.128506420      1381.233574627
      5106         5106.000000         0.741785834       489.523846611     -4127.079167768     -4127.128512652      1631.082692334
      5107         5107.000000         0.735016377       485.056505212     -4127.079967178     -4127.128569263      2267.571748893
      5108         5108.000000         0.732564654       483.438548692     -4127.080745113     -4127.128619196      3554.878111226
      5109         5109.000000         0.723847432       477.685826486     -4127.081497792     -4127.128630208      3629.270626083
      5110         5110.000000         0.733171791       483.839214427     -4127.082241191     -4127.128617078      3087.257623257
      5111         5111.000000         0.736564072       486.077869437     -4127.082981251     -4127.128593180      4206.668949964
      5112         5112.000000         0.734797747       484.912225312     -4127.083731969     -4127.128574716      1974.483746057
      5113         5113.000000         0.738626461       487.438893782     -4127.084516559     -4127.128565656      1311.226111108
      5114         5114.000000         0.739939237       488.305229129     -4127.085351138     -4127.128575856      1642.782271761
      5115         5115.000000         0.750318566       495.154818899     -4127.086219183     -4127.128595101      3002.539134552
      5116         5116.000000         0.752992381       496.919339610     -4127.087101241     -4127.128614728      5331.506062478
      5117         5117.000000         0.755264452       498.418738734     -4127.087984007     -4127.128625445      2925.449095916
      5118         5118.000000         0.751256459       495.773758983     -4127.088855374     -4127.128606166      1155.067557682
      5119         5119.000000         0.752739075       496.752176646     -4127.089750978     -4127.128571000       991.201410022
      5120         5120.000000         0.757512339       499.902177831     -4127.090716965     -4127.128563006       891.504982546
      5121         5121.000000         0.762947341       503.488877939     -4127.091738416     -4127.128578854       788.342726632
      5122         5122.000000         0.761771205       502.712714560     -4127.092779318     -4127.128589857       770.705376333
      5123         5123.000000         0.761106270       502.273906870     -4127.093871300     -4127.128614703       732.907007346
      5124         5124.000000         0.768595147       507.216012577     -4127.094996477     -4127.128639755       791.332830940
      5125         5125.000000         0.762481604       503.181525842     -4127.096110552     -4127.128619967       732.707621773
      5126         5126.000000         0.762879763       503.444281471     -4127.097241264     -4127.128584566       873.115885807
      5127         5127.000000         0.764002805       504.185405897     -4127.098434607     -4127.128584479      1042.331126412
      5128         5128.000000         0.771399914       509.066951056     -4127.099654549     -4127.128596178      1265.240473233
      5129         5129.000000         0.772897215       510.055059255     -4127.100876342     -4127.128592941      1618.160961903
      5130         5130.000000         0.777023398       512.778035210     -4127.102146892     -4127.128631837      2405.241701648
      5131         5131.000000         0.777812311       513.298659924     -4127.103399380     -4127.128656087      6034.073177788
      5132         5132.000000         0.782637772       516.483107071     -4127.104576775     -4127.128609076      5411.464553920
      5133         5133.000000         0.784175836       517.498115912     -4127.105761706     -4127.128587023      2242.455938521
      5134         5134.000000         0.781662283       515.839357035     -4127.106939807     -4127.128591801      1552.444643996
      5135         5135.000000         0.780515861       515.082802801     -4127.108163300     -4127.128668887      1408.275357447
      5136         5136.000000         0.779837762       514.635307558     -4127.109323392     -4127.128704340      2082.063887236
      5137         5137.000000         0.785539855       518.398267889     -4127.110345333     -4127.128641199      2888.820098468
      5138         5138.000000         0.780251607       514.908414835     -4127.111407655     -4127.128641476      1321.555494413
      5139         5139.000000         0.785997812       518.700485394     -4127.112506916     -4127.128694976      1081.474951176
      5140         5140.000000         0.789931627       521.296513050     -4127.113527566     -4127.128707970      1493.772895781
      5141         5141.000000         0.797948067       526.586771147     -4127.114431773     -4127.128633158      5522.941303462
      5142         5142.000000         0.801519359       528.943559552     -4127.115280634     -4127.128534855      2633.471775423
      5143         5143.000000         0.806659131       532.335429661     -4127.116240478     -4127.128598898      1677.948841337
      5144         5144.000000         0.803384023       530.174100056     -4127.117168495     -4127.128687872      3838.334024954
      5145         5145.000000         0.805283860       531.427852573     -4127.117917853     -4127.128647724      6451.285162683
      5146         5146.000000         0.799312605       527.487265198     -4127.118631969     -4127.128615236      2803.947854804
      5147         5147.000000         0.794122017       524.061860885     -4127.119337386     -4127.128626793      1563.686595781
      5148         5148.000000         0.792507007       522.996073099     -4127.119983836     -4127.128625235      1353.310794654
      5149         5149.000000         0.792510463       522.998353936     -4127.120581383     -4127.128596705      1446.076724112
      5150         5150.000000         0.792898918       523.254705619     -4127.121166341     -4127.128573069      7104.000564617
      5151         5151.000000         0.791074494       522.050720758     -4127.121859420     -4127.128699528      9027.436669027
      5152         5152.000000         0.786511517       519.039493001     -4127.122430815     -4127.128771585      3051.942783453
      5153         5153.000000         0.779312456       514.288644348     -4127.122953716     -4127.128846046      7096.424521627
      5154         5154.000000         0.782963309       516.697938030     -4127.123445612     -4127.128908569      4371.998024194
      5155         5155.000000         0.788196826       520.151672477     -4127.123912640     -4127.128944725      2672.040257088
      5156         5156.000000         0.786662419       519.139076773     -4127.124350231     -4127.128932578      2048.259307555