#     Step Nr.          Time[fs]        Kin.[a.u.]          Temp[K]            Pot.[a.u.]        Cons Qty[a.u.]        UsedTime[s]
      6964         6964.000000         1.097796769       301.309333501     -4264.890487822     -4264.271090753      2942.682300259
      6965         6965.000000         1.113097551       305.508898099     -4264.907495064     -4264.272084838      1049.721441947
      6966         6966.000000         1.117590833       306.742157270     -4264.920130031     -4264.272539416      1351.362936265
      6967         6967.000000         1.120566640       307.558918944     -4264.921270601     -4264.272088660       995.872349348
      6968         6968.000000         1.110210246       304.716427174     -4264.915862088     -4264.272153826       938.173177099
      6969         6969.000000         1.107203953       303.891298124     -4264.906728024     -4264.271355798      1187.727402151
      6970         6970.000000         1.110387265       304.765013107     -4264.905265492     -4264.271240691      1573.800735262
      6971         6971.000000         1.116025406       306.312498691     -4264.911910350     -4264.272695972      9353.998110037
      6972         6972.000000         1.113579753       305.641246750     -4264.906500838     -4264.272801741      1382.698788317
      6973         6973.000000         1.089974408       299.162351069     -4264.887707287     -4264.270995552       893.927535801
      6974         6974.000000         1.088178611       298.669463457     -4264.879779012     -4264.270588717       697.125786606
      6975         6975.000000         1.104759009       303.220240759     -4264.888279761     -4264.271881789       642.594428081
      6976         6976.000000         1.114989648       306.028216754     -4264.894345378     -4264.272244814       696.173112911
      6977         6977.000000         1.114577391       305.915065670     -4264.890199073     -4264.272093230       807.658171325
      6978         6978.000000         1.103201898       302.792864705     -4264.878447961     -4264.271545035      1010.308822260
      6979         6979.000000         1.093262136       300.064724925     -4264.869838305     -4264.270219059       920.975851336
      6980         6980.000000         1.100326024       302.003531473     -4264.881611414     -4264.271100523      1101.842111726
      6981         6981.000000         1.117215322       306.639091529     -4264.901502520     -4264.272941436      1162.113958485
      6982         6982.000000         1.124893447       308.746486133     -4264.903007941     -4264.272832970       803.197775728
      6983         6983.000000         1.116928320       306.560319044     -4264.887879785     -4264.270635064       750.175879354
      6984         6984.000000         1.107133416       303.871938023     -4264.885319569     -4264.270510158       906.615842163
      6985         6985.000000         1.121058329       307.693871492     -4264.898582969     -4264.272124033       727.819003182
      6986         6986.000000         1.130850479       310.381496704     -4264.904133029     -4264.272952650       656.808964105
      6987         6987.000000         1.114486439       305.890102548     -4264.887898683     -4264.272608698       748.850630233
      6988         6988.000000         1.084473656       297.652574474     -4264.857321948     -4264.270918235       971.163919632
      6989         6989.000000         1.065497038       292.444112945     -4264.838629299     -4264.269902234      4390.477254614
      6990         6990.000000         1.066450386       292.705775944     -4264.846157083     -4264.271257287       593.740962305
      6991         6991.000000         1.078347536       295.971154584     -4264.860086965     -4264.272855784       977.434517886
      6992         6992.000000         1.070821501       293.905503950     -4264.857280800     -4264.272008532      1256.080843530
      6993         6993.000000         1.063588250       291.920213065     -4264.849882140     -4264.270103547       913.875407420
      6994         6994.000000         1.072725840       294.428182983     -4264.864029192     -4264.270843758       879.884931347
      6995         6995.000000         1.098582421       301.524969311     -4264.890922269     -4264.272475274      1272.683240975
      6996         6996.000000         1.115630939       306.204230174     -4264.905957171     -4264.273221007       830.641076617
      6997         6997.000000         1.111701239       305.125656156     -4264.897737768     -4264.272582250      1200.305609427
      6998         6998.000000         1.094051231       300.281305866     -4264.876981682     -4264.271049169      1767.716379276
      6999         6999.000000         1.074537920       294.925539660     -4264.866090606     -4264.270911553      1237.859988112
      7000         7000.000000         1.077180241       295.650770289     -4264.867873971     -4264.271922879       842.651046319
      7001         7001.000000         1.075257003       295.122904314     -4264.866543017     -4264.272544425      1068.476216051
      7002         7002.000000         1.065666051       292.490501498     -4264.854171884     -4264.271190993       686.136643883
      7003         7003.000000         1.053113048       289.045112373     -4264.849006323     -4264.270494290       510.480439934
      7004         7004.000000         1.065115921       292.339508876     -4264.861117038     -4264.271526100       623.927340992
      7005         7005.000000         1.079808373       296.372106670     -4264.877532185     -4264.272171276      1285.877207501
      7006         7006.000000         1.093745499       300.197392424     -4264.887337330     -4264.272620854       650.450655072
      7007         7007.000000         1.087115201       298.377592172     -4264.884903274     -4264.272249922       612.314835477
      7008         7008.000000         1.075079261       295.074120138     -4264.876911421     -4264.271528659       617.563094061
      7009         7009.000000         1.067633867       293.030602732     -4264.873149642     -4264.271900936       966.063650096
      7010         7010.000000         1.064461551       292.159905765     -4264.869028423     -4264.272295527      2023.470059529
      7011         7011.000000         1.057343779       290.206309929     -4264.858302597     -4264.271828606      2130.086716554
      7012         7012.000000         1.054986039       289.559187279     -4264.847621462     -4264.270762266      1204.949279340
      7013         7013.000000         1.050115153       288.222288419     -4264.850310000     -4264.271306197      1213.298597496
      7014         7014.000000         1.059901612       290.908351448     -4264.859747569     -4264.272102395      1071.982294706
      7015         7015.000000         1.062008743       291.486689923     -4264.865341559     -4264.271790061      1047.820256524
      7016         7016.000000         1.069802420       293.625799695     -4264.869890543     -4264.271927025      1849.388241300
      7017         7017.000000         1.073101631       294.531325379     -4264.873308681     -4264.271812774      1889.819335625
      7018         7018.000000         1.070744416       293.884346649     -4264.876553179     -4264.271988315       947.591394863
      7019         7019.000000         1.071504138       294.092865597     -4264.876726765     -4264.272424610      1284.798953199
      7020         7020.000000         1.065834264       292.536670444     -4264.867652446     -4264.272131925      2040.268501950
      7021         7021.000000         1.051919409       288.717497519     -4264.853414917     -4264.271188517       652.853821960
      7022         7022.000000         1.050450693       288.314382988     -4264.846872566     -4264.270909200       611.370218498
      7023         7023.000000         1.054359853       289.387319625     -4264.851470059     -4264.271854424       764.609397454
      7024         7024.000000         1.062665723       291.667009520     -4264.854466007     -4264.272112213      1111.807526032
      7025         7025.000000         1.057272833       290.186837532     -4264.851679638     -4264.271611250       972.960941193
      7026         7026.000000         1.067509193       292.996383843     -4264.850324683     -4264.271370478       871.711486786
      7027         7027.000000         1.059203168       290.716651381     -4264.855578864     -4264.271244632       950.051716667
      7028         7028.000000         1.068874530       293.371124309     -4264.868899787     -4264.272105222      2169.420189166
      7029         7029.000000         1.082872185       297.213022956     -4264.878443471     -4264.272649562      1057.349867556
      7030         7030.000000         1.084393459       297.630562894     -4264.875153801     -4264.271998167      1482.162726971
      7031         7031.000000         1.070803807       293.900647587     -4264.867372129     -4264.271268076      1490.209005815
      7032         7032.000000         1.072571777       294.385897751     -4264.865980667     -4264.271289462       898.865830488
      7033         7033.000000         1.078123670       295.909710912     -4264.870180937     -4264.271841087      2740.593025478
      7034         7034.000000         1.087628511       298.518479027     -4264.871682830     -4264.272120049      4458.372054647
      7035         7035.000000         1.088533457       298.766857122     -4264.865538659     -4264.272056167      1420.980854874
      7036         7036.000000         1.085713338       297.992826585     -4264.853839904     -4264.271012907       728.448451609
      7037         7037.000000         1.080311473       296.510191328     -4264.851188843     -4264.270635812       558.231861985
      7038         7038.000000         1.080312320       296.510423741     -4264.862090201     -4264.272057717       687.630975267
      7039         7039.000000         1.088138027       298.658324607     -4264.868702779     -4264.272321303       611.649019537
      7040         7040.000000         1.083232212       297.311838636     -4264.866065319     -4264.271665162       805.811267189
      7041         7041.000000         1.091735920       299.645828514     -4264.861290543     -4264.271562925      1637.614953339
      7042         7042.000000         1.090571054       299.326110863     -4264.856625704     -4264.270958909       741.847780616
      7043         7043.000000         1.097337252       301.183211119     -4264.860023883     -4264.270772648      1420.128475348
      7044         7044.000000         1.110802142       304.878883227     -4264.872945991     -4264.272105491      2047.235480767
      7045         7045.000000         1.118306868       306.938685236     -4264.876400834     -4264.272935857       929.492222372
      7046         7046.000000         1.101855589       302.423346930     -4264.860506149     -4264.271033155       813.701111924
      7047         7047.000000         1.090794037       299.387312476     -4264.851576440     -4264.270013386       774.625517611
      7048         7048.000000         1.109991618       304.656420969     -4264.863851695     -4264.271679107       749.183540443
      7049         7049.000000         1.115809256       306.253172538     -4264.875572220     -4264.272318687       659.779103125
      7050         7050.000000         1.120539764       307.551542258     -4264.874919545     -4264.271967160       739.135114948
      7051         7051.000000         1.115922778       306.284330681     -4264.865376050     -4264.271485186      1732.177378314
      7052         7052.000000         1.102697946       302.654546449     -4264.855764326     -4264.270265927       988.304415270
      7053         7053.000000         1.107688230       304.024216230     -4264.863146156     -4264.270378838       964.039416182
      7054         7054.000000         1.126718545       309.247415810     -4264.884411910     -4264.272559410       922.243141746
      7055         7055.000000         1.130777250       310.361397657     -4264.889319424     -4264.273176340      1375.688582586
      7056         7056.000000         1.106465936       303.688736402     -4264.871563712     -4264.270653003      1552.152408155
      7057         7057.000000         1.099877926       301.880542949     -4264.866039197     -4264.270010921      1141.719345792
      7058         7058.000000         1.109310060       304.469355606     -4264.883097309     -4264.272107746       986.047572931
      7059         7059.000000         1.117481280       306.712088457     -4264.894671428     -4264.272904677      3518.601370315
      7060         7060.000000         1.107171377       303.882357086     -4264.887649628     -4264.272223924       881.601075440
      7061         7061.000000         1.088224550       298.682072250     -4264.871700367     -4264.271339240       967.709984530
      7062         7062.000000         1.081458698       296.825067004     -4264.861165596     -4264.270436434       751.553998010
      7063         7063.000000         1.092821767       299.943857934     -4264.867864271     -4264.270865346      1598.515252606
      7064         7064.000000         1.106948757       303.821255024     -4264.883798088     -4264.272644515      1201.515025784
      7065         7065.000000         1.110105069       304.687559464     -4264.884537715     -4264.272741193      2461.362726144
      7066         7066.000000         1.101248007       302.256585430     -4264.870161649     -4264.270503736      1873.496196018
      7067         7067.000000         1.099506832       301.778689802     -4264.871743772     -4264.270054728      1277.209102632
      7068         7068.000000         1.125638445       308.950963584     -4264.896631697     -4264.272010329      1599.368715064
      7069         7069.000000         1.142397381       313.550743909     -4264.917287826     -4264.273166657      1356.782672661
      7070         7070.000000         1.145250989       314.333966065     -4264.915642895     -4264.272385068      2398.667574581
      7071         7071.000000         1.133995233       311.244628707     -4264.901842966     -4264.271142179      1606.907914434
      7072         7072.000000         1.134859453       311.481828810     -4264.893618197     -4264.270780000      1118.961903519
      7073         7073.000000         1.127726114       309.523960390     -4264.895621577     -4264.271540606       956.537396786
      7074         7074.000000         1.134197864       311.300244344     -4264.895634105     -4264.272603422       639.020055417
      7075         7075.000000         1.115581539       306.190671496     -4264.879455317     -4264.271913039       672.451820103
      7076         7076.000000         1.101094121       302.214348894     -4264.858784465     -4264.269972786       741.165781203
      7077         7077.000000         1.100160503       301.958101134     -4264.861378592     -4264.270130320      2281.997715210
      7078         7078.000000         1.121028143       307.685586345     -4264.885384485     -4264.272276789       951.984396522
      7079         7079.000000         1.130274502       310.223409761     -4264.901104170     -4264.272916225      1102.588817593
      7080         7080.000000         1.126672025       309.234647471     -4264.899063127     -4264.271407569      1010.048620168
      7081         7081.000000         1.129222600       309.934696960     -4264.899393944     -4264.270752241       790.757933022
      7082         7082.000000         1.137178483       312.118326755     -4264.912006128     -4264.271534049       720.774005923
      7083         7083.000000         1.148699534       315.280478695     -4264.925361195     -4264.272526550       723.037375508
      7084         7084.000000         1.154642020       316.911497133     -4264.924232930     -4264.272687698       963.398802629
      7085         7085.000000         1.142098734       313.468775013     -4264.906673935     -4264.271359702       607.214869749
      7086         7086.000000         1.120027343       307.410899472     -4264.892401632     -4264.270248866       719.900393114
      7087         7087.000000         1.123364109       308.326732809     -4264.897781659     -4264.271330399       668.104849137
      7088         7088.000000         1.127443310       309.446340192     -4264.908041246     -4264.273026270       550.182678856
      7089         7089.000000         1.120334372       307.495168874     -4264.900117848     -4264.272269229       795.232011068
      7090         7090.000000         1.107562846       303.989802481     -4264.884248933     -4264.270488940       988.551419463
      7091         7091.000000         1.111977616       305.201512537     -4264.884607081     -4264.270768198      1143.813493205
      7092         7092.000000         1.114242007       305.823013732     -4264.898363010     -4264.271995824      1152.656033221
      7093         7093.000000         1.127846334       309.556957046     -4264.906949333     -4264.272767590      2258.487555578
      7094         7094.000000         1.118653222       307.033748124     -4264.898577591     -4264.272236194      1084.232589197
      7095         7095.000000         1.108742532       304.313587708     -4264.881603499     -4264.270694829      3735.620620420
      7096         7096.000000         1.100635504       302.088473572     -4264.878768531     -4264.270328533       968.007140784
      7097         7097.000000         1.123552826       308.378529350     -4264.895247008     -4264.271995766      1082.022206802
      7098         7098.000000         1.132221469       310.757788600     -4264.906965059     -4264.273209140      1430.906644837
      7099         7099.000000         1.123615418       308.395708809     -4264.897589275     -4264.271757608      1840.248115464
      7100         7100.000000         1.117835702       306.809365708     -4264.886535582     -4264.270248763      3771.820425836
      7101         7101.000000         1.123809003       308.448841482     -4264.894852276     -4264.270916528      1031.228706846
      7102         7102.000000         1.148834996       315.317658782     -4264.913825933     -4264.272199862       823.878165662
      7103         7103.000000         1.151248228       315.980012126     -4264.922912585     -4264.272793187       743.562159337
      7104         7104.000000         1.137457780       312.194984904     -4264.913421786     -4264.272009283       980.380752501
      7105         7105.000000         1.124277185       308.577342188     -4264.898207371     -4264.270660039       726.178040051
      7106         7106.000000         1.127950626       309.585581596     -4264.897491176     -4264.270702007       982.261647270
      7107         7107.000000         1.135317378       311.607514333     -4264.910137793     -4264.272566006       961.547842324
      7108         7108.000000         1.127699721       309.516716520     -4264.910973366     -4264.273103590       773.705928820
      7109         7109.000000         1.112119320       305.240405707     -4264.893135731     -4264.271499693      1159.627387287
      7110         7110.000000         1.100238286       301.979449992     -4264.878626571     -4264.270460851      1070.352891042
      7111         7111.000000         1.105258747       303.357402639     -4264.882570430     -4264.271082143       830.524902500
      7112         7112.000000         1.115808059       306.252844017     -4264.896395510     -4264.272168412       744.042702408
      7113         7113.000000         1.120995072       307.676509478     -4264.903656693     -4264.272523200       825.661842244
      7114         7114.000000         1.119761473       307.337926740     -4264.899291718     -4264.271749082       927.267313007
      7115         7115.000000         1.114648381       305.934550349     -4264.894733377     -4264.270799552      1398.537701123
      7116         7116.000000         1.125626152       308.947589484     -4264.904228589     -4264.271031963      1638.058983652
      7117         7117.000000         1.147477753       314.945139851     -4264.923333498     -4264.272710620      1692.048292483
      7118         7118.000000         1.146300358       314.621983519     -4264.929176709     -4264.273005875      2047.245553799
      7119         7119.000000         1.137551726       312.220769862     -4264.916884096     -4264.271907366      4884.153898675
      7120         7120.000000         1.123535288       308.373715842     -4264.901992342     -4264.270968123      1183.941591766
      7121         7121.000000         1.121031754       307.686577373     -4264.897859481     -4264.271297875       915.925716312
      7122         7122.000000         1.115177928       306.079893634     -4264.899945571     -4264.272255902      1875.799867252
      7123         7123.000000         1.105219475       303.346623720     -4264.894938992     -4264.272356227      1442.802448497
      7124         7124.000000         1.092721354       299.916297933     -4264.881195334     -4264.271679108      1130.363284693
      7125         7125.000000         1.077591301       295.763593037     -4264.869218851     -4264.270868545      1992.583126350
      7126         7126.000000         1.074014378       294.781844517     -4264.871680364     -4264.271051475      1570.112356710
      7127         7127.000000         1.086556837       298.224339479     -4264.885950069     -4264.272190703      1414.798824825
      7128         7128.000000         1.096928392       301.070992465     -4264.895965225     -4264.272453735      2973.764500986
      7129         7129.000000         1.101492153       302.323595538     -4264.896785606     -4264.272022387      1341.217048169
      7130         7130.000000         1.102445708       302.585315381     -4264.894553471     -4264.271455677       803.232216166
      7131         7131.000000         1.100998847       302.188199175     -4264.897203584     -4264.271490431       992.426163446
      7132         7132.000000         1.099671384       301.823853977     -4264.904165464     -4264.272285139      1366.049164780
      7133         7133.000000         1.094860308       300.503370949     -4264.905500037     -4264.272423461      1468.088514346
      7134         7134.000000         1.090130684       299.205243744     -4264.899035632     -4264.271948041      1389.529338429
      7135         7135.000000         1.076284698       295.404973133     -4264.892293289     -4264.271647432      2058.927372184
      7136         7136.000000         1.078890160       296.120087377     -4264.889838054     -4264.272100327      1382.941128420
      7137         7137.000000         1.077612919       295.769526488     -4264.886772587     -4264.271975153       936.941800298
      7138         7138.000000         1.078778132       296.089339197     -4264.883251647     -4264.271693193       832.458679791
      7139         7139.000000         1.079996140       296.423642726     -4264.881571964     -4264.272036354       954.905112820
      7140         7140.000000         1.077309166       295.686156026     -4264.877149023     -4264.271950039       687.825294721
      7141         7141.000000         1.072894926       294.474591543     -4264.871123842     -4264.271315825      1095.991110675
      7142         7142.000000         1.072288935       294.308266756     -4264.871608630     -4264.271456772       791.290365759
      7143         7143.000000         1.074993410       295.050556730     -4264.877641754     -4264.271956517       735.830995536
      7144         7144.000000         1.091281551       299.521119199     -4264.882612420     -4264.271879621      1530.422993181
      7145         7145.000000         1.087143468       298.385350478     -4264.886987800     -4264.271707700       794.411860686
      7146         7146.000000         1.097354332       301.187898982     -4264.892144380     -4264.272205353       772.400847099
      7147         7147.000000         1.085574274       297.954658141     -4264.894028155     -4264.271450853      1319.147982569
      7148         7148.000000         1.102430375       302.581107043     -4264.901628205     -4264.271533962      1520.352725530
      7149         7149.000000         1.112366091       305.308136342     -4264.912203048     -4264.272906236       681.754677090
      7150         7150.000000         1.104539702       303.160048150     -4264.907453179     -4264.272544416       926.352131794
      7151         7151.000000         1.095179725       300.591040572     -4264.892261616     -4264.271221399       795.981291384
      7152         7152.000000         1.087342352       298.439937838     -4264.884855933     -4264.271364150       670.683820744
      7153         7153.000000         1.086221532       298.132309174     -4264.883732047     -4264.272322799      1054.310879102
      7154         7154.000000         1.080445154       296.546882419     -4264.877300737     -4264.271790438      1555.291475929
      7155         7155.000000         1.076554258       295.478958646     -4264.871564664     -4264.271511212      1402.495084358
      7156         7156.000000         1.068785120       293.346584052     -4264.870122110     -4264.272010661       801.660407505
      7157         7157.000000         1.063568746       291.914859751     -4264.868966452     -4264.271210104      2098.256949408
      7158         7158.000000         1.073841237       294.734322794     -4264.876977376     -4264.271738221      2875.829565817
      7159         7159.000000         1.087739588       298.548966040     -4264.885914706     -4264.273001466       898.670084853
      7160         7160.000000         1.082765687       297.183792848     -4264.878912080     -4264.272044858      1248.730769500
      7161         7161.000000         1.070854183       293.914474187     -4264.867807700     -4264.270880074       691.484759228
      7162         7162.000000         1.067537050       293.004029520     -4264.869475817     -4264.271457588       883.842982272
      7163         7163.000000         1.074864151       295.015079463     -4264.876779034     -4264.272370216      1071.874265570
      7164         7164.000000         1.077220072       295.661702686     -4264.877901524     -4264.271779349       837.781825667
      7165         7165.000000         1.081326457       296.788771130     -4264.878679015     -4264.271850840      1295.868617634
      7166         7166.000000         1.081097937       296.726049790     -4264.879956469     -4264.271626972      1290.727476535
      7167         7167.000000         1.092433942       299.837412658     -4264.885131241     -4264.271153162       955.942496725
      7168         7168.000000         1.109950146       304.645038387     -4264.897951583     -4264.272238399       756.390733258
      7169         7169.000000         1.109992072       304.656545693     -4264.903020380     -4264.272792387       882.850325825
      7170         7170.000000         1.102743122       302.666945875     -4264.893030017     -4264.271604407      1208.874659883
      7171         7171.000000         1.091839846       299.674352759     -4264.883797051     -4264.271144255       772.138325937
      7172         7172.000000         1.083395069       297.356537659     -4264.883120604     -4264.271787344       660.141878451
      7173         7173.000000         1.085135018       297.834096795     -4264.883114633     -4264.271915803       811.668101672
      7174         7174.000000         1.078184444       295.926391311     -4264.881576109     -4264.271796683      1109.749042107
      7175         7175.000000         1.082646272       297.151017353     -4264.879436179     -4264.272059503      3840.273104270
      7176         7176.000000         1.081717762       296.896171533     -4264.875238734     -4264.271033809      2481.583268762
      7177         7177.000000         1.089717066       299.091719073     -4264.881199013     -4264.271234124       931.016750082
      7178         7178.000000         1.093734801       300.194456130     -4264.894167262     -4264.272639956      1063.597684861
      7179         7179.000000         1.096669034       300.999807222     -4264.895770424     -4264.272306221       945.211701008
      7180         7180.000000         1.089308619       298.979613718     -4264.889678036     -4264.271281950      7207.231641295
      7181         7181.000000         1.093765847       300.202977062     -4264.889831173     -4264.271593818       899.631992336
      7182         7182.000000         1.095468158       300.670205770     -4264.893215757     -4264.272234805       926.344615110
      7183         7183.000000         1.086654289       298.251086822     -4264.891335088     -4264.272110878       589.483870705
      7184         7184.000000         1.077430024       295.719327652     -4264.884781243     -4264.272144477       889.349639212
      7185         7185.000000         1.065710039       292.502574751     -4264.874292031     -4264.271751980       825.997461552
      7186         7186.000000         1.068813417       293.354350574     -4264.866366842     -4264.270895984      1116.895230734
      7187         7187.000000         1.070609137       293.847217183     -4264.870978299     -4264.271669878       950.858415498
      7188         7188.000000         1.081622500       296.870025357     -4264.876946501     -4264.272621410      2653.946061366
      7189         7189.000000         1.073965136       294.768329146     -4264.871454491     -4264.271751643      4228.187707515
      7190         7190.000000         1.068730425       293.331571928     -4264.865328260     -4264.271099106       978.780771287
      7191         7191.000000         1.067433652       292.975650247     -4264.867989773     -4264.271628658      1100.968139034