#     Step Nr.          Time[fs]        Kin.[a.u.]          Temp[K]            Pot.[a.u.]        Cons Qty[a.u.]        UsedTime[s]
      9489         9489.000000         0.815760500       538.341661044     -4128.498636750     -4128.472999102      7601.600954054
      9490         9490.000000         0.805724925       531.718922770     -4128.497630777     -4128.473025375      3357.240736355
      9491         9491.000000         0.805453678       531.539919813     -4128.496637033     -4128.473029440      2234.621219215
      9492         9492.000000         0.807232344       532.713707733     -4128.495704318     -4128.473051189      1551.830948802
      9493         9493.000000         0.808964970       533.857112775     -4128.494822609     -4128.473067962      1171.212319218
      9494         9494.000000         0.819607755       540.880565120     -4128.493957487     -4128.473064382      1046.890540418
      9495         9495.000000         0.812896495       536.451629061     -4128.493103678     -4128.473050904      1158.507853847
      9496         9496.000000         0.808257038       533.389930241     -4128.492317309     -4128.473075145      1408.026428135
      9497         9497.000000         0.807545236       532.920193756     -4128.491589200     -4128.473097800      1696.382835517
      9498         9498.000000         0.808294581       533.414705957     -4128.490889993     -4128.473089124      2001.810032994
      9499         9499.000000         0.810152693       534.640922605     -4128.490245271     -4128.473083765      2292.816985529
      9500         9500.000000         0.806178984       532.018568085     -4128.489649788     -4128.473084440      2321.438052335
      9501         9501.000000         0.797292401       526.154079583     -4128.489119127     -4128.473093405      2107.274526240
      9502         9502.000000         0.791930010       522.615297850     -4128.488660057     -4128.473098517      1811.827038208
      9503         9503.000000         0.790150446       521.440917096     -4128.488282186     -4128.473105695      1564.925427853
      9504         9504.000000         0.784830790       517.930337108     -4128.487952799     -4128.473091995      6367.117753286
      9505         9505.000000         0.789923966       521.291456956     -4128.487712290     -4128.473093396      1820.412961206
      9506         9506.000000         0.790911600       521.943222924     -4128.487578574     -4128.473115920      1080.697688105
      9507         9507.000000         0.798529284       526.970331203     -4128.487514926     -4128.473118698      1327.058227531
      9508         9508.000000         0.789583137       521.066535146     -4128.487522557     -4128.473109288      1934.486737172
      9509         9509.000000         0.782688859       516.516821023     -4128.487629883     -4128.473117360      2773.645929458
      9510         9510.000000         0.782527810       516.410540819     -4128.487806836     -4128.473104865      2155.264284101
      9511         9511.000000         0.781935837       516.019882445     -4128.488084991     -4128.473095493      2023.336873236
      9512         9512.000000         0.770486535       508.464188784     -4128.488485159     -4128.473102913      1327.342948774
      9513         9513.000000         0.774900766       511.377255229     -4128.489001630     -4128.473124879      2160.868785187
      9514         9514.000000         0.768532322       507.174552470     -4128.489587087     -4128.473114591      1382.665633374
      9515         9515.000000         0.765608150       505.244815214     -4128.490264929     -4128.473090906      1012.132767353
      9516         9516.000000         0.763798592       504.050640697     -4128.491093751     -4128.473111572      1546.658705898
      9517         9517.000000         0.766897167       506.095471275     -4128.492028609     -4128.473126357      1825.598539541
      9518         9518.000000         0.766593755       505.895241397     -4128.493041480     -4128.473113414      7172.043441269
      9519         9519.000000         0.761358456       502.440330916     -4128.494166824     -4128.473108092      2045.425031806
      9520         9520.000000         0.757826306       500.109372867     -4128.495410129     -4128.473121220      1135.673487596
      9521         9521.000000         0.761071121       502.250711073     -4128.496741233     -4128.473119616      1775.143592794
      9522         9522.000000         0.762292513       503.056739815     -4128.498174046     -4128.473116718      7090.975301390
      9523         9523.000000         0.772129352       509.548326474     -4128.499712055     -4128.473118081      2443.311833458
      9524         9524.000000         0.772265194       509.637972317     -4128.501344745     -4128.473122818      1276.045294567
      9525         9525.000000         0.782334114       516.282715783     -4128.503052128     -4128.473121533       951.090009687
      9526         9526.000000         0.786455925       519.002806184     -4128.504854048     -4128.473127280       771.395898953
      9527         9527.000000         0.783028786       516.741147691     -4128.506706069     -4128.473124285       810.036869840
      9528         9528.000000         0.779696913       514.542357786     -4128.508600609     -4128.473116171      1212.867535706
      9529         9529.000000         0.782341269       516.287437069     -4128.510555954     -4128.473116315      1285.849035698
      9530         9530.000000         0.798250251       526.786190389     -4128.512573470     -4128.473127592       902.727071270
      9531         9531.000000         0.811257318       535.369893430     -4128.514605415     -4128.473105672       631.312920366
      9532         9532.000000         0.815347468       538.069089954     -4128.516655021     -4128.473082031       776.372565954
      9533         9533.000000         0.814185698       537.302407672     -4128.518747546     -4128.473104326      1147.199024981
      9534         9534.000000         0.819827975       541.025893643     -4128.520816747     -4128.473120554      1826.480551888
      9535         9535.000000         0.824359337       544.016257547     -4128.522820402     -4128.473077637      1879.496028196
      9536         9536.000000         0.827250145       545.923977870     -4128.524844759     -4128.473084234       999.847532591
      9537         9537.000000         0.822308303       542.662726981     -4128.526857782     -4128.473124187      1254.996666478
      9538         9538.000000         0.825565947       544.812531333     -4128.528758595     -4128.473109762      5524.819189311
      9539         9539.000000         0.838638982       553.439768372     -4128.530636918     -4128.473118457      2908.982378008
      9540         9540.000000         0.840857067       554.903540493     -4128.532430623     -4128.473110774      2866.383247903
      9541         9541.000000         0.835758745       551.539025202     -4128.534122898     -4128.473087745       631.854997854
      9542         9542.000000         0.833265983       549.893986148     -4128.535779749     -4128.473123343       500.700623960
      9543         9543.000000         0.835991554       551.692661920     -4128.537301228     -4128.473117049       575.426792926
      9544         9544.000000         0.832482265       549.376790479     -4128.538726840     -4128.473119367      1254.296117567
      9545         9545.000000         0.820049831       541.172302421     -4128.540036302     -4128.473114405       774.945662203
      9546         9546.000000         0.814182203       537.300101268     -4128.541201302     -4128.473079273       729.032871776
      9547         9547.000000         0.814143680       537.274678926     -4128.542339147     -4128.473119848       601.950827357
      9548         9548.000000         0.811182081       535.320242506     -4128.543334359     -4128.473124672       521.236339915
      9549         9549.000000         0.816706741       538.966109581     -4128.544217369     -4128.473123758       550.831826815
      9550         9550.000000         0.818472163       540.131158178     -4128.544988237     -4128.473125768       577.489191007
      9551         9551.000000         0.816605289       538.899158817     -4128.545659452     -4128.473139826       570.434390536
      9552         9552.000000         0.820747285       541.632570619     -4128.546193596     -4128.473129476       671.373088548
      9553         9553.000000         0.827851806       546.321029119     -4128.546621881     -4128.473125980       975.519134837
      9554         9554.000000         0.811821491       535.742205912     -4128.546948911     -4128.473136765      2392.025394032
      9555         9555.000000         0.810681038       534.989590881     -4128.547129843     -4128.473112351       614.951301479
      9556         9556.000000         0.811964168       535.836362407     -4128.547200555     -4128.473082857       579.016429478
      9557         9557.000000         0.811456828       535.501554982     -4128.547203246     -4128.473089641       584.506570955
      9558         9558.000000         0.809516082       534.220806216     -4128.547125651     -4128.473116644       701.385557869
      9559         9559.000000         0.805715296       531.712568564     -4128.546925305     -4128.473116864       959.534904526
      9560         9560.000000         0.805294875       531.435121381     -4128.546646045     -4128.473123694       967.594572658
      9561         9561.000000         0.802603051       529.658716507     -4128.546300852     -4128.473141658      1262.345815789
      9562         9562.000000         0.799183950       527.402362327     -4128.545863761     -4128.473143218      1838.050838122
      9563         9563.000000         0.798505015       526.954315221     -4128.545344550     -4128.473129491      6705.171649766
      9564         9564.000000         0.792681389       523.111152343     -4128.544747364     -4128.473098257      2151.735626161
      9565         9565.000000         0.797771753       526.470416619     -4128.544117049     -4128.473086892       889.484546536
      9566         9566.000000         0.803256052       530.089649160     -4128.543459321     -4128.473106637      1176.497203768
      9567         9567.000000         0.809507972       534.215454277     -4128.542757406     -4128.473137946      2020.041377112
      9568         9568.000000         0.799595126       527.673708156     -4128.541978115     -4128.473139629      1941.827623896
      9569         9569.000000         0.789300182       520.879805453     -4128.541177866     -4128.473152175      1589.910052813
      9570         9570.000000         0.790429724       521.625219862     -4128.540333244     -4128.473148681      1658.918460560
      9571         9571.000000         0.797628924       526.376159875     -4128.539449457     -4128.473120882      2001.099734687
      9572         9572.000000         0.798702197       527.084440954     -4128.538569068     -4128.473114888      2281.343541370
      9573         9573.000000         0.804482141       530.898777236     -4128.537663412     -4128.473120855      2921.758955976
      9574         9574.000000         0.799661249       527.717344192     -4128.536732436     -4128.473122705      2286.598490795
      9575         9575.000000         0.802190112       529.386207167     -4128.535779245     -4128.473103964      2003.218236920
      9576         9576.000000         0.792331417       522.880196804     -4128.534845034     -4128.473111061      1738.709028268
      9577         9577.000000         0.795998642       525.300294750     -4128.533904836     -4128.473115829      1526.107501598
      9578         9578.000000         0.800062306       527.982012338     -4128.532961378     -4128.473111346      1394.994420476
      9579         9579.000000         0.799316066       527.489549107     -4128.532022911     -4128.473113913      1271.479463524
      9580         9580.000000         0.796314707       525.508874016     -4128.531101542     -4128.473121867      1202.512721806
      9581         9581.000000         0.792273901       522.842240367     -4128.530196366     -4128.473122707      1137.216073247
      9582         9582.000000         0.793082879       523.376106624     -4128.529311469     -4128.473121617      1100.192909966
      9583         9583.000000         0.799819867       527.822020910     -4128.528441530     -4128.473117890      1073.567093646
      9584         9584.000000         0.805767120       531.746768316     -4128.527604212     -4128.473125807      1095.662989219
      9585         9585.000000         0.806280548       532.085592646     -4128.526785345     -4128.473127041      1112.493659826
      9586         9586.000000         0.815433424       538.125814853     -4128.525979164     -4128.473151788      3466.611795854
      9587         9587.000000         0.802399179       529.524175995     -4128.525207655     -4128.473226979      1186.734173496
      9588         9588.000000         0.803379043       530.170814113     -4128.524489633     -4128.473306097      1248.401678456
      9589         9589.000000         0.809379123       534.130423287     -4128.523801481     -4128.473317045      1264.327973059
      9590         9590.000000         0.815179895       537.958504253     -4128.523149351     -4128.473299966      4375.286239589
      9591         9591.000000         0.808177578       533.337492498     -4128.522531644     -4128.473308323      1971.449202511
      9592         9592.000000         0.814798122       537.706562666     -4128.521970055     -4128.473346913      1187.748563036
      9593         9593.000000         0.811599008       535.595383526     -4128.521452469     -4128.473357372      1116.506939413
      9594         9594.000000         0.816456891       538.801227537     -4128.520983347     -4128.473347436      1206.767375858
      9595         9595.000000         0.814473136       537.492095464     -4128.520560348     -4128.473349382      1166.657807074
      9596         9596.000000         0.811537605       535.554861933     -4128.520201686     -4128.473375244      1056.631236890
      9597         9597.000000         0.808089368       533.279280220     -4128.519897493     -4128.473379650       908.703309718
      9598         9598.000000         0.809533613       534.232375261     -4128.519651276     -4128.473372703       789.405922256
      9599         9599.000000         0.810398347       534.803035962     -4128.519463018     -4128.473377992       738.813843028
      9600         9600.000000         0.811844408       535.757329499     -4128.519343502     -4128.473400426       822.736395692
      9601         9601.000000         0.822505143       542.792626502     -4128.519274946     -4128.473403836       855.035339282
      9602         9602.000000         0.817099616       539.225378432     -4128.519256673     -4128.473397535      1112.031591103
      9603         9603.000000         0.818049691       539.852357682     -4128.519286206     -4128.473403358      1517.478955890
      9604         9604.000000         0.817097159       539.223756633     -4128.519368520     -4128.473421534      2125.632519316
      9605         9605.000000         0.823275659       543.301110116     -4128.519491599     -4128.473423862      2046.659265394
      9606         9606.000000         0.828111660       546.492514008     -4128.519650522     -4128.473419070      1473.313499119
      9607         9607.000000         0.820492202       541.464234769     -4128.519841650     -4128.473422075      1442.353484131
      9608         9608.000000         0.816861840       539.068463614     -4128.520071512     -4128.473434143      1987.450965167
      9609         9609.000000         0.822461620       542.763904777     -4128.520331861     -4128.473435668      1166.039114119
      9610         9610.000000         0.816865450       539.070846300     -4128.520614712     -4128.473419599      1030.243405051
      9611         9611.000000         0.810843727       535.096954099     -4128.520941958     -4128.473419364       786.890879187
      9612         9612.000000         0.820599609       541.535115023     -4128.521293692     -4128.473421950       892.065186213
      9613         9613.000000         0.820885595       541.723844779     -4128.521671335     -4128.473424585      1200.134176434
      9614         9614.000000         0.828912354       547.020912511     -4128.522066495     -4128.473416997      2936.105167274
      9615         9615.000000         0.834835250       550.929586357     -4128.522484993     -4128.473415377       992.127203598
      9616         9616.000000         0.849544332       560.636494189     -4128.522909049     -4128.473416453       914.730931663
      9617         9617.000000         0.847144383       559.052704913     -4128.523335796     -4128.473418067       874.802113352
      9618         9618.000000         0.853288346       563.107266497     -4128.523761158     -4128.473413720       941.896719123
      9619         9619.000000         0.855298235       564.433645009     -4128.524188354     -4128.473411318      1004.458887260
      9620         9620.000000         0.863949816       570.143049102     -4128.524610215     -4128.473411867      1093.540380319
      9621         9621.000000         0.873678862       576.563500721     -4128.525019971     -4128.473412747      1094.372519901
      9622         9622.000000         0.874564608       577.148027400     -4128.525423318     -4128.473420598      1107.857276639
      9623         9623.000000         0.866324454       571.710134370     -4128.525805247     -4128.473420185      1268.374132830
      9624         9624.000000         0.859733539       567.360617730     -4128.526168344     -4128.473417920      1528.220463272
      9625         9625.000000         0.874736989       577.261786140     -4128.526516991     -4128.473418146      1822.542659941
      9626         9626.000000         0.866133294       571.583983085     -4128.526851802     -4128.473423733      2089.577681815
      9627         9627.000000         0.861670248       568.638702817     -4128.527161731     -4128.473423977      2073.025322253
      9628         9628.000000         0.863924097       570.126076348     -4128.527443054     -4128.473416826      2320.625659416
      9629         9629.000000         0.861345600       568.424459042     -4128.527709793     -4128.473422781      2642.738953063
      9630         9630.000000         0.863333758       569.736496182     -4128.527942859     -4128.473423799      1397.125918082
      9631         9631.000000         0.855248136       564.400583198     -4128.528145402     -4128.473423358      2876.014194550
      9632         9632.000000         0.851485976       561.917835772     -4128.528316228     -4128.473420801      1047.368812380
      9633         9633.000000         0.844869711       557.551589568     -4128.528458111     -4128.473423310       985.114657588
      9634         9634.000000         0.838151831       553.118284652     -4128.528556774     -4128.473423510       827.678950509
      9635         9635.000000         0.829379987       547.329515943     -4128.528605792     -4128.473415362       772.215956519
      9636         9636.000000         0.828542269       546.776684119     -4128.528628418     -4128.473421728       794.550042292
      9637         9637.000000         0.825546252       544.799534147     -4128.528600612     -4128.473423342      1178.363242260
      9638         9638.000000         0.820622426       541.550172644     -4128.528520938     -4128.473423695      3674.850073514
      9639         9639.000000         0.811587065       535.587502016     -4128.528386648     -4128.473419708      1227.431766201
      9640         9640.000000         0.814113205       537.254567449     -4128.528202624     -4128.473421678      1830.275873576
      9641         9641.000000         0.814707481       537.646745756     -4128.527955025     -4128.473422241      2002.663099804
      9642         9642.000000         0.808503950       533.552873603     -4128.527645087     -4128.473422441      1443.234634364
      9643         9643.000000         0.806572683       532.278380539     -4128.527266401     -4128.473421813      1032.286543222
      9644         9644.000000         0.810730075       535.021951714     -4128.526819724     -4128.473423997       818.063974120
      9645         9645.000000         0.813606056       536.919886720     -4128.526293252     -4128.473424241       681.023381405
      9646         9646.000000         0.812282233       536.046261751     -4128.525684817     -4128.473419001       600.180356522
      9647         9647.000000         0.810881661       535.121987139     -4128.525007664     -4128.473420793       675.629306724
      9648         9648.000000         0.814567376       537.554286753     -4128.524243597     -4128.473421665       783.557440001
      9649         9649.000000         0.803049431       529.953294486     -4128.523403689     -4128.473422166       879.220312859
      9650         9650.000000         0.794046329       524.011912428     -4128.522494039     -4128.473417818       974.562518407
      9651         9651.000000         0.799904724       527.878019967     -4128.521522634     -4128.473417472      1096.072194820
      9652         9652.000000         0.797703713       526.425515299     -4128.520477530     -4128.473414496      3659.303901643
      9653         9653.000000         0.799594260       527.673136433     -4128.519391095     -4128.473443216      2016.550880625
      9654         9654.000000         0.795523298       524.986602835     -4128.518230838     -4128.473459121      2176.004192674
      9655         9655.000000         0.795939646       525.261361547     -4128.517043166     -4128.473487560      1824.691461815
      9656         9656.000000         0.800162495       528.048129813     -4128.515825065     -4128.473497144      1465.692453329
      9657         9657.000000         0.796208860       525.439023148     -4128.514556958     -4128.473489142      1288.846019823
      9658         9658.000000         0.800414280       528.214289112     -4128.513245075     -4128.473492130      1362.479855069
      9659         9659.000000         0.796492557       525.626242014     -4128.511929750     -4128.473529075      1917.416119040
      9660         9660.000000         0.795762943       525.144750431     -4128.510614287     -4128.473550501      2629.019416753
      9661         9661.000000         0.798171616       526.734296596     -4128.509287964     -4128.473542189      2237.303212245
      9662         9662.000000         0.796930496       525.915249482     -4128.507944723     -4128.473545173      1995.243117323
      9663         9663.000000         0.790854795       521.905735416     -4128.506666003     -4128.473590818      2528.340901752
      9664         9664.000000         0.789159374       520.786883112     -4128.505408425     -4128.473600684      1624.212896813
      9665         9665.000000         0.790638298       521.762863496     -4128.504178893     -4128.473595982       871.359455402
      9666         9666.000000         0.789969642       521.321599856     -4128.502997763     -4128.473590987      1757.613125705
      9667         9667.000000         0.788698563       520.482781438     -4128.501889622     -4128.473605017      2383.827784732
      9668         9668.000000         0.794287633       524.171154688     -4128.500845198     -4128.473609797       940.238296371
      9669         9669.000000         0.791973724       522.644146172     -4128.499872405     -4128.473604021       647.198265750
      9670         9670.000000         0.786892741       519.291072641     -4128.498988609     -4128.473595897       586.466493176
      9671         9671.000000         0.790569279       521.717316115     -4128.498205945     -4128.473601052       578.753544567
      9672         9672.000000         0.788640450       520.444431522     -4128.497517630     -4128.473601164       577.690141043
      9673         9673.000000         0.786550355       519.065123311     -4128.496940195     -4128.473598528       628.975611119
      9674         9674.000000         0.784637881       517.803031373     -4128.496482278     -4128.473596975       715.846030043
      9675         9675.000000         0.782776144       516.574422949     -4128.496154349     -4128.473601987       891.852101213
      9676         9676.000000         0.782163735       516.170278254     -4128.495958794     -4128.473602667      1090.703375916
      9677         9677.000000         0.779170216       514.194776425     -4128.495891852     -4128.473592871      1193.119367514
      9678         9678.000000         0.780066626       514.786340775     -4128.495983213     -4128.473598460      5841.099107536
      9679         9679.000000         0.779646621       514.509168477     -4128.496218635     -4128.473600313      2966.232038993
      9680         9680.000000         0.784422898       517.661158663     -4128.496601772     -4128.473600982      1354.513349676
      9681         9681.000000         0.784040531       517.408824654     -4128.497130903     -4128.473595270      2254.962864160
      9682         9682.000000         0.793647064       523.748426440     -4128.497820739     -4128.473596667      7213.812109423
      9683         9683.000000         0.797472484       526.272921081     -4128.498653893     -4128.473598091      1379.887043234
      9684         9684.000000         0.798675599       527.066888411     -4128.499631065     -4128.473598068      1520.998902841
      9685         9685.000000         0.798568666       526.996320582     -4128.500750829     -4128.473595390      1636.837105182
      9686         9686.000000         0.799241807       527.440544014     -4128.502006422     -4128.473596816      1657.270786850
      9687         9687.000000         0.786439056       518.991673725     -4128.503391109     -4128.473598541      1565.839404905
      9688         9688.000000         0.788259106       520.192772852     -4128.504892880     -4128.473590695      1419.901521240
      9689         9689.000000         0.790156446       521.444876670     -4128.506540714     -4128.473595041      1291.338443093
      9690         9690.000000         0.793517605       523.662993141     -4128.508311485     -4128.473598778      1159.049436577
      9691         9691.000000         0.782072733       516.110223401     -4128.510188700     -4128.473597286      1020.361267867
      9692         9692.000000         0.785048877       518.074258647     -4128.512161340     -4128.473593686      1396.565700600
      9693         9693.000000         0.781391551       515.660693843     -4128.514253335     -4128.473599886      2979.925388047
      9694         9694.000000         0.780105637       514.812085512     -4128.516428318     -4128.473602072      1452.069418190
      9695         9695.000000         0.786837435       519.254574381     -4128.518661364     -4128.473588996      5358.057553339
      9696         9696.000000         0.788028611       520.040663153     -4128.520997478     -4128.473596233      1237.759568677
      9697         9697.000000         0.783197650       516.852585494     -4128.523380550     -4128.473602375       806.840042036
      9698         9698.000000         0.783124696       516.804441019     -4128.525803512     -4128.473599889       656.054936441
      9699         9699.000000         0.793842611       523.877473269     -4128.528254086     -4128.473591334       651.968412498
      9700         9700.000000         0.798763254       527.124733960     -4128.530764229     -4128.473600937       685.413202910
      9701         9701.000000         0.801709271       529.068887536     -4128.533276101     -4128.473605120       702.172202707
      9702         9702.000000         0.798044062       526.650120673     -4128.535776355     -4128.473600468       831.906895457
      9703         9703.000000         0.792155408       522.764043870     -4128.538256116     -4128.473601209       899.635186470
      9704         9704.000000         0.790363845       521.581745068     -4128.540711493     -4128.473607208       798.330489940
      9705         9705.000000         0.786341382       518.927216050     -4128.543122089     -4128.473606386       801.793653689
      9706         9706.000000         0.795493669       524.967049492     -4128.545497045     -4128.473600442       781.864390735
      9707         9707.000000         0.790761504       521.844170579     -4128.547857521     -4128.473612298       832.066888768
      9708         9708.000000         0.795984494       525.290957601     -4128.550149698     -4128.473618085       843.659579392
      9709         9709.000000         0.785196409       518.171618551     -4128.552371831     -4128.473616686       840.003865164
      9710         9710.000000         0.787491967       519.686517381     -4128.554520876     -4128.473613087       854.164849383
      9711         9711.000000         0.783461814       517.026914330     -4128.556612679     -4128.473617469      4992.091761930
      9712         9712.000000         0.780888371       515.328632219     -4128.558637003     -4128.473618300      1121.937574669
      9713         9713.000000         0.785083367       518.097019224     -4128.560575519     -4128.473608043      4641.557321658
      9714         9714.000000         0.788476568       520.336281335     -4128.562474503     -4128.473618284       836.616145841
      9715         9715.000000         0.793220873       523.467172157     -4128.564294554     -4128.473622030       825.914986752
      9716         9716.000000         0.789304125       520.882408053     -4128.566035676     -4128.473619720       808.416257173