#     Step Nr.          Time[fs]        Kin.[a.u.]          Temp[K]            Pot.[a.u.]        Cons Qty[a.u.]        UsedTime[s]
      5547         5547.000000         1.112351001       305.303994528     -4043.279605062     -4043.056309010      1377.717666641
      5548         5548.000000         1.120962551       307.667583454     -4043.284095143     -4043.056346757       657.730634752
      5549         5549.000000         1.108987583       304.380846104     -4043.277936709     -4043.055330491       903.879879715
      5550         5550.000000         1.102806431       302.684321948     -4043.275348916     -4043.055353735      1843.615819073
      5551         5551.000000         1.101106502       302.217747036     -4043.278565622     -4043.055585650      1048.194732497
      5552         5552.000000         1.109754328       304.591292771     -4043.283993810     -4043.055871373       922.209791177
      5553         5553.000000         1.112326525       305.297276666     -4043.286072358     -4043.056421842       614.137700531
      5554         5554.000000         1.101991021       302.460518517     -4043.277031023     -4043.056094795       574.300024727
      5555         5555.000000         1.093268058       300.066350214     -4043.261516407     -4043.054894479       921.601213306
      5556         5556.000000         1.083071804       297.267811768     -4043.256558339     -4043.054285469       621.779895517
      5557         5557.000000         1.100656463       302.094225917     -4043.270785088     -4043.055378634       831.305747557
      5558         5558.000000         1.115294080       306.111773583     -4043.288096384     -4043.056927426       668.892519803
      5559         5559.000000         1.115977179       306.299261793     -4043.286981584     -4043.056397905       693.089651708
      5560         5560.000000         1.102815058       302.686689724     -4043.275031925     -4043.055118278       678.232187775
      5561         5561.000000         1.103750233       302.943364742     -4043.271057310     -4043.054889585       654.253799842
      5562         5562.000000         1.108820968       304.335115720     -4043.278979753     -4043.055485801       584.244800195
      5563         5563.000000         1.112860784       305.443913356     -4043.288556875     -4043.056619304       507.948948164
      5564         5564.000000         1.106255863       303.631078346     -4043.283435965     -4043.056717316       514.572736618
      5565         5565.000000         1.080014919       296.428796830     -4043.262833214     -4043.055381876       572.459788815
      5566         5566.000000         1.063647851       291.936571683     -4043.247106925     -4043.053908473       853.553513713
      5567         5567.000000         1.069710171       293.600480221     -4043.257472557     -4043.054561888       551.294982633
      5568         5568.000000         1.103141766       302.776360533     -4043.284584101     -4043.056760356       464.436171703
      5569         5569.000000         1.113223868       305.543568081     -4043.297110480     -4043.057314924      1020.515176509
      5570         5570.000000         1.103790464       302.954406987     -4043.286491820     -4043.055796291       965.586136161
      5571         5571.000000         1.096197231       300.870312567     -4043.274767830     -4043.054595498       661.295982846
      5572         5572.000000         1.103809893       302.959739494     -4043.279918353     -4043.054900821       488.201271380
      5573         5573.000000         1.114368214       305.857653642     -4043.296020504     -4043.056581034      1081.625600392
      5574         5574.000000         1.110693993       304.849199990     -4043.298506549     -4043.057504860       560.133224642
      5575         5575.000000         1.092426721       299.835430804     -4043.274494149     -4043.056195646       511.440638728
      5576         5576.000000         1.055363991       289.662922677     -4043.244636147     -4043.053830957      1202.609420398
      5577         5577.000000         1.052037861       288.750008918     -4043.243437472     -4043.053733357       478.601975957
      5578         5578.000000         1.084581600       297.682201659     -4043.271674753     -4043.056429004       620.447078628
      5579         5579.000000         1.112188558       305.259409335     -4043.290485506     -4043.058001331       867.082014421
      5580         5580.000000         1.097277135       301.166710958     -4043.276305345     -4043.056303064      2430.599805002
      5581         5581.000000         1.079464621       296.277758073     -4043.252683573     -4043.053997075      1307.887195507
      5582         5582.000000         1.084885703       297.765667953     -4043.252833831     -4043.054067295      2736.747010242
      5583         5583.000000         1.107822486       304.061065081     -4043.275722612     -4043.056016630      1934.484263507
      5584         5584.000000         1.121177773       307.726655048     -4043.291416433     -4043.057591474      2006.239884209
      5585         5585.000000         1.105685081       303.474417395     -4043.276107257     -4043.056862098      1077.215072019
      5586         5586.000000         1.074481757       294.910124622     -4043.241436417     -4043.054080328       825.336485269
      5587         5587.000000         1.055106282       289.592190177     -4043.228856385     -4043.052865722       985.462008438
      5588         5588.000000         1.084498015       297.659260239     -4043.255847781     -4043.055365721       712.139996878
      5589         5589.000000         1.119400350       307.238810410     -4043.286588894     -4043.058117082      2123.704184101
      5590         5590.000000         1.120178083       307.452272734     -4043.280887691     -4043.057273533      1032.874011012
      5591         5591.000000         1.087488595       298.480076642     -4043.249846716     -4043.054351420       842.597240756
      5592         5592.000000         1.075901192       295.299713174     -4043.235401011     -4043.053584662      1581.140906594
      5593         5593.000000         1.087140486       298.384532125     -4043.249111478     -4043.055334369      1731.757240421
      5594         5594.000000         1.099399358       301.749191773     -4043.264811128     -4043.057023399      1055.337151152
      5595         5595.000000         1.084302068       297.605479230     -4043.256538173     -4043.056989642       783.669706646
      5596         5596.000000         1.053121595       289.047458404     -4043.227032321     -4043.054739306       970.222644544
      5597         5597.000000         1.040475252       285.576450494     -4043.210559495     -4043.052792226      1014.844786631
      5598         5598.000000         1.057095674       290.138213140     -4043.234811492     -4043.054448589       892.489328312
      5599         5599.000000         1.094141409       300.306056588     -4043.275748456     -4043.057950335       771.167827742
      5600         5600.000000         1.103432408       302.856132093     -4043.284007289     -4043.058046088       641.743767533
      5601         5601.000000         1.080657241       296.605093216     -4043.257603161     -4043.055048197      1142.526986616
      5602         5602.000000         1.066037489       292.592449202     -4043.238305797     -4043.053782572       780.435155870
      5603         5603.000000         1.069854304       293.640040214     -4043.245655856     -4043.054986062       676.480721395
      5604         5604.000000         1.084203881       297.578530056     -4043.261873765     -4043.056706296       771.058864992
      5605         5605.000000         1.082606717       297.140160643     -4043.260063360     -4043.057273512      2252.136102996
      5606         5606.000000         1.057128945       290.147344931     -4043.232727513     -4043.055348723      3010.924874251
      5607         5607.000000         1.044288801       286.623145030     -4043.208215921     -4043.053037402      2246.900607234
      5608         5608.000000         1.057815981       290.335913955     -4043.219731257     -4043.053528402       785.880978128
      5609         5609.000000         1.095947381       300.801737054     -4043.258880587     -4043.056808781       698.964973403
      5610         5610.000000         1.111055664       304.948466900     -4043.279092294     -4043.058359603       616.415845426
      5611         5611.000000         1.091313633       299.529924468     -4043.259488653     -4043.055817036      1021.149222586
      5612         5612.000000         1.069619270       293.575530886     -4043.234616309     -4043.053805960       945.847971215
      5613         5613.000000         1.060388813       291.042072290     -4043.234545571     -4043.054529501      1399.727928970
      5614         5614.000000         1.077112134       295.632077123     -4043.249766073     -4043.056143076      1731.014642678
      5615         5615.000000         1.082270297       297.047824314     -4043.254117304     -4043.057155408      1026.503403884
      5616         5616.000000         1.058698341       290.578092871     -4043.232881291     -4043.055961125       765.896903239
      5617         5617.000000         1.035481237       284.205756535     -4043.205077334     -4043.053523329      2243.009179139
      5618         5618.000000         1.041761614       285.929514899     -4043.206575188     -4043.053075894       661.851593853
      5619         5619.000000         1.071731355       294.155229292     -4043.243750207     -4043.055725456       642.390512596
      5620         5620.000000         1.101620240       302.358751239     -4043.278672976     -4043.058295733       681.070745223
      5621         5621.000000         1.099866143       301.877309121     -4043.275672761     -4043.057063868      2082.719443138
      5622         5622.000000         1.089380308       298.999290098     -4043.251968199     -4043.054492837      1731.613201668
      5623         5623.000000         1.079537448       296.297746796     -4043.243128140     -4043.054334151      1034.028885990
      5624         5624.000000         1.085328292       297.887143976     -4043.252536035     -4043.055356044       699.479387979
      5625         5625.000000         1.094620605       300.437580219     -4043.263034107     -4043.056625550       756.432045687
      5626         5626.000000         1.089821273       299.120320386     -4043.254732328     -4043.056670512       842.664906187
      5627         5627.000000         1.064110193       292.063469336     -4043.227273616     -4043.054807571       606.484283722
      5628         5628.000000         1.048575865       287.799803948     -4043.208872296     -4043.053168478       703.762259903
      5629         5629.000000         1.068251837       293.200215342     -4043.223849981     -4043.054118323      1008.140742504
      5630         5630.000000         1.100252926       301.983468281     -4043.258728149     -4043.056851340      1338.578185404
      5631         5631.000000         1.115303694       306.114412155     -4043.275083536     -4043.057740041       950.355114439
      5632         5632.000000         1.108457363       304.235318030     -4043.260871463     -4043.055503547       790.071184092
      5633         5633.000000         1.095485716       300.675025077     -4043.245221452     -4043.054268559       890.696535876
      5634         5634.000000         1.097451931       301.214686840     -4043.246270210     -4043.054742691       604.922664404
      5635         5635.000000         1.108471508       304.239200464     -4043.256148599     -4043.055636100       788.129762093
      5636         5636.000000         1.110259206       304.729865165     -4043.259111461     -4043.056403786       741.904919114
      5637         5637.000000         1.094972213       300.534085192     -4043.245113923     -4043.055551842       791.380576277
      5638         5638.000000         1.078535363       296.022707085     -4043.227184432     -4043.054092000      1084.273804045
      5639         5639.000000         1.073924785       294.757254235     -4043.227804827     -4043.053774657       898.586696189
      5640         5640.000000         1.099677770       301.825606875     -4043.253016234     -4043.055215847       928.096162545
      5641         5641.000000         1.124205824       308.557756062     -4043.282008826     -4043.057238837       754.473365271
      5642         5642.000000         1.129906243       310.122334682     -4043.287267437     -4043.056745498       688.776545621
      5643         5643.000000         1.118665910       307.037230600     -4043.274504565     -4043.055287389       718.827879757
      5644         5644.000000         1.110308558       304.743410581     -4043.263169240     -4043.054899039       813.063115758
      5645         5645.000000         1.102390481       302.570157281     -4043.260200994     -4043.054798882      1030.485168405
      5646         5646.000000         1.101233243       302.252533178     -4043.265157280     -4043.055794502      2094.237033667
      5647         5647.000000         1.099048014       301.652759317     -4043.263767561     -4043.056491388       893.962286161
      5648         5648.000000         1.079137816       296.188060629     -4043.246369395     -4043.055538615      1136.530874964
      5649         5649.000000         1.063639610       291.934309763     -4043.227113333     -4043.054125556       765.079134340
      5650         5650.000000         1.063531540       291.904648094     -4043.228704485     -4043.053797426       850.830235277
      5651         5651.000000         1.092762019       299.927459147     -4043.255811332     -4043.055853436       654.304072242
      5652         5652.000000         1.117167278       306.625905136     -4043.280650238     -4043.057214739       529.006570659
      5653         5653.000000         1.115538681       306.178908463     -4043.283391760     -4043.056259814       568.570957667
      5654         5654.000000         1.108166507       304.155487629     -4043.274710645     -4043.055538286       423.333067220
      5655         5655.000000         1.089504576       299.033397431     -4043.266393874     -4043.054849031       740.550916492
      5656         5656.000000         1.088532322       298.766545568     -4043.268269732     -4043.054889319       645.717424455
      5657         5657.000000         1.093521687       300.135963222     -4043.277789495     -4043.056535205       571.793215088
      5658         5658.000000         1.090224679       299.231042156     -4043.272528051     -4043.056971097      1486.802072769
      5659         5659.000000         1.062243649       291.551164167     -4043.247452882     -4043.055137886       715.791104187
      5660         5660.000000         1.050575889       288.348745303     -4043.231266912     -4043.053379483       591.746892783
      5661         5661.000000         1.073401119       294.613525012     -4043.249327918     -4043.054854824       487.139930531
      5662         5662.000000         1.106430728       303.679072949     -4043.281402436     -4043.057348512       769.228009889
      5663         5663.000000         1.118521915       306.997708609     -4043.292408454     -4043.057126686      1372.454961023
      5664         5664.000000         1.111833292       305.161900382     -4043.282083328     -4043.055794637      1979.798543910
      5665         5665.000000         1.097378886       301.194638214     -4043.268907801     -4043.054828324       994.144847227
      5666         5666.000000         1.102888389       302.706816849     -4043.268034596     -4043.054197629       932.837781447
      5667         5667.000000         1.122641681       308.128449925     -4043.284297405     -4043.056048218       953.358035302
      5668         5668.000000         1.123918226       308.478819780     -4043.290077138     -4043.057884608      1371.266219663
      5669         5669.000000         1.096905277       301.064648116     -4043.261116715     -4043.056041966      1107.301102628
      5670         5670.000000         1.068167726       293.177129666     -4043.226034503     -4043.052843752      1163.264060799
      5671         5671.000000         1.067805097       293.077599776     -4043.230934274     -4043.053437449      1434.737610301
      5672         5672.000000         1.099966849       301.904949541     -4043.269122820     -4043.056750313       577.470703354
      5673         5673.000000         1.121361443       307.777066440     -4043.294742259     -4043.057936519       622.710551110
      5674         5674.000000         1.122273358       308.027357163     -4043.289210885     -4043.056414446       643.054353940
      5675         5675.000000         1.112485076       305.340793695     -4043.271978785     -4043.054892510       661.958805110
      5676         5676.000000         1.110777107       304.872011978     -4043.266785312     -4043.053927707       687.254871286
      5677         5677.000000         1.122695890       308.143328417     -4043.284886022     -4043.055361236      2792.231367809
      5678         5678.000000         1.128005944       309.600764783     -4043.303798487     -4043.057942025       968.639765070
      5679         5679.000000         1.109345078       304.478966761     -4043.288075482     -4043.057376236       793.910841618
      5680         5680.000000         1.074156411       294.820827826     -4043.247290758     -4043.053738827       592.925167654
      5681         5681.000000         1.065283044       292.385378519     -4043.234405180     -4043.052454098       606.216410216
      5682         5682.000000         1.101422838       302.304570909     -4043.268884409     -4043.055292620      2617.238173749
      5683         5683.000000         1.141591200       313.329473463     -4043.310147803     -4043.058191506       792.387022177
      5684         5684.000000         1.147784555       315.029347104     -4043.315564124     -4043.057754749      1173.481496686
      5685         5685.000000         1.118604231       307.020301867     -4043.290769619     -4043.055103408       853.189919332
      5686         5686.000000         1.100735482       302.115914137     -4043.275367114     -4043.053498609      1186.447884607
      5687         5687.000000         1.123639097       308.402207796     -4043.292552927     -4043.054980155      1725.514983803
      5688         5688.000000         1.147689709       315.003314883     -4043.318429850     -4043.057937022       839.358795213
      5689         5689.000000         1.135286684       311.599090011     -4043.309210958     -4043.057977255      1588.113699684
      5690         5690.000000         1.096093740       300.841907735     -4043.265251633     -4043.054461792       864.688674391
      5691         5691.000000         1.071788709       294.170971123     -4043.237123729     -4043.052351547       584.180213472
      5692         5692.000000         1.095408692       300.653884530     -4043.256189351     -4043.054060378       563.532137201
      5693         5693.000000         1.133694627       311.162122238     -4043.298108072     -4043.057126587      1356.863249738
      5694         5694.000000         1.151347013       316.007125253     -4043.317554750     -4043.058198835      1115.342714537
      5695         5695.000000         1.137333384       312.160842112     -4043.300154723     -4043.055588912       853.625739994
      5696         5696.000000         1.123924512       308.480544910     -4043.284123682     -4043.053004238       869.500036285
      5697         5697.000000         1.145651790       314.443972828     -4043.305448085     -4043.054552617      1333.519534204
      5698         5698.000000         1.174330481       322.315335955     -4043.340848058     -4043.057926260       799.249429444
      5699         5699.000000         1.160559073       318.535534548     -4043.340868508     -4043.058396170       767.290536832
      5700         5700.000000         1.123044596       308.239036768     -4043.299595097     -4043.055276447       535.899352799
      5701         5701.000000         1.093515361       300.134226961     -4043.262134813     -4043.052909346       820.864804206
      5702         5702.000000         1.091774843       299.656511753     -4043.264350093     -4043.053856836      1185.742817492
      5703         5703.000000         1.117804224       306.800726036     -4043.294554838     -4043.056094040       807.778620128
      5704         5704.000000         1.148718384       315.285652545     -4043.317860243     -4043.057772589      2295.626467632
      5705         5705.000000         1.141847714       313.399878123     -4043.309832268     -4043.056633315      1268.695672155
      5706         5706.000000         1.130432657       310.266818121     -4043.288834605     -4043.053663112       716.917260016
      5707         5707.000000         1.138871952       312.583128655     -4043.296299611     -4043.053840776       692.786102387
      5708         5708.000000         1.164023407       319.486381182     -4043.328864334     -4043.057130040       981.186667660
      5709         5709.000000         1.176473228       322.903450020     -4043.339431963     -4043.058378013       862.170172981
      5710         5710.000000         1.154312429       316.821035154     -4043.308551765     -4043.055897913       970.595435838
      5711         5711.000000         1.115535236       306.177963038     -4043.270324050     -4043.053381987       637.448943487
      5712         5712.000000         1.114521031       305.899596942     -4043.261605209     -4043.053607736       520.724965295
      5713         5713.000000         1.135686313       311.708775074     -4043.280543188     -4043.055170315       452.395306667
      5714         5714.000000         1.162688462       319.119982286     -4043.302485804     -4043.056775008       887.329684768
      5715         5715.000000         1.171836203       321.630738357     -4043.303140088     -4043.056725556      2443.907077180
      5716         5716.000000         1.147551072       314.965263663     -4043.285231750     -4043.054135191       928.962934148
      5717         5717.000000         1.143346241       313.811174826     -4043.286411334     -4043.053336480      1048.556446598
      5718         5718.000000         1.175382703       322.604136664     -4043.317497792     -4043.056313572      1501.236155840
      5719         5719.000000         1.192677671       327.351040076     -4043.336044922     -4043.058242963      2619.629004807
      5720         5720.000000         1.169663642       321.034441317     -4043.312553724     -4043.056498816       945.396298228
      5721         5721.000000         1.132460535       310.823404325     -4043.271101193     -4043.053802567       839.323488626
      5722         5722.000000         1.115117192       306.063223460     -4043.250776761     -4043.053426221       835.659794275
      5723         5723.000000         1.108218531       304.169766423     -4043.259301542     -4043.054641466       768.005910572
      5724         5724.000000         1.122476827       308.083202862     -4043.278864229     -4043.056113019       480.947916944
      5725         5725.000000         1.136015778       311.799202404     -4043.287571070     -4043.056660539       642.095528209
      5726         5726.000000         1.121686138       307.866184540     -4043.279094754     -4043.055341095       672.256946073
      5727         5727.000000         1.118224435       306.916060192     -4043.274348556     -4043.053816879       613.982733825
      5728         5728.000000         1.134424937       311.362568456     -4043.294117719     -4043.055171197       593.740419379
      5729         5729.000000         1.155280847       317.086834051     -4043.319845537     -4043.057309138       658.916807299
      5730         5730.000000         1.152877010       316.427059470     -4043.320408518     -4043.057450601       639.186338380
      5731         5731.000000         1.125039567       308.786591191     -4043.293123026     -4043.055600282      1249.894937316
      5732         5732.000000         1.094552159       300.418794133     -4043.264780300     -4043.054177234       676.625557918
      5733         5733.000000         1.076355823       295.424494714     -4043.257723189     -4043.054412349       813.608492619
      5734         5734.000000         1.091078705       299.465444511     -4043.269120767     -4043.055646732      1101.766369211
      5735         5735.000000         1.100302972       301.997204256     -4043.280239294     -4043.056604738       899.785803942
      5736         5736.000000         1.105835214       303.515623899     -4043.276638411     -4043.056268219       918.464817107
      5737         5737.000000         1.085758446       298.005207276     -4043.265008004     -4043.054542893      2193.652443804
      5738         5738.000000         1.083442505       297.369557078     -4043.270564349     -4043.054482015      1124.035432850
      5739         5739.000000         1.111630933       305.106359369     -4043.295132046     -4043.056397886      1082.621418495
      5740         5740.000000         1.134863981       311.483071686     -4043.311199112     -4043.057465211       904.559529959
      5741         5741.000000         1.128580619       309.758494244     -4043.301495824     -4043.056637236       637.467898589
      5742         5742.000000         1.103063691       302.754931471     -4043.276955994     -4043.055166467       958.060615203
      5743         5743.000000         1.080782725       296.639534517     -4043.259365241     -4043.054594435       567.285197697
      5744         5744.000000         1.081892771       296.944205762     -4043.257349953     -4043.055150976       509.612820385
      5745         5745.000000         1.085712192       297.992512041     -4043.262371616     -4043.056020081       498.686799510
      5746         5746.000000         1.088180910       298.670094518     -4043.261184855     -4043.056255091      1224.633099201
      5747         5747.000000         1.082740845       297.176974385     -4043.251037594     -4043.055323699       321.419723989
      5748         5748.000000         1.080854328       296.659187166     -4043.246065742     -4043.054431209       335.604402115
      5749         5749.000000         1.088335874       298.712627140     -4043.258508881     -4043.055203421       341.736940081
      5750         5750.000000         1.104853276       303.246113981     -4043.278002732     -4043.056450705       365.427106939
      5751         5751.000000         1.116622503       306.476382147     -4043.286292587     -4043.056770844       381.966609858
      5752         5752.000000         1.105563110       303.440940286     -4043.277183275     -4043.056261421      1716.394724931
      5753         5753.000000         1.087464008       298.473328212     -4043.258648549     -4043.055099472       388.627421447
      5754         5754.000000         1.075884951       295.295255721     -4043.247145828     -4043.054654147       417.324275913
      5755         5755.000000         1.078792167       296.093191496     -4043.249239079     -4043.055283863       538.712416068
      5756         5756.000000         1.091344138       299.538297309     -4043.255618491     -4043.056014047      1269.441163166
      5757         5757.000000         1.090029716       299.177531238     -4043.255034117     -4043.056207399      1348.728841501
      5758         5758.000000         1.083476824       297.378976711     -4043.245388762     -4043.055385707       986.586790904
      5759         5759.000000         1.081189527       296.751188466     -4043.239293539     -4043.054550454       668.889973609
      5760         5760.000000         1.088722395       298.818714519     -4043.247829370     -4043.055423792       597.575572880
      5761         5761.000000         1.104503133       303.150011298     -4043.259912968     -4043.056220203       500.249700479
      5762         5762.000000         1.108704393       304.303119709     -4043.261330168     -4043.056609483       549.229534625
      5763         5763.000000         1.101153985       302.230779675     -4043.245835591     -4043.055686359       457.386380103
      5764         5764.000000         1.082840479       297.204320773     -4043.226841541     -4043.054056910       454.754099397
      5765         5765.000000         1.085590754       297.959181327     -4043.225954384     -4043.054300106       536.680458121
      5766         5766.000000         1.098482523       301.497550588     -4043.240667322     -4043.055546930       600.750690764
      5767         5767.000000         1.111444596       305.055216091     -4043.253165132     -4043.056230123       779.648668749
      5768         5768.000000         1.110226308       304.720835736     -4043.252160093     -4043.056055756       707.090096327
      5769         5769.000000         1.111239636       304.998961206     -4043.241412126     -4043.054600808      1673.025146263
      5770         5770.000000         1.112302773       305.290757461     -4043.240205422     -4043.054559848       580.500079132
      5771         5771.000000         1.111409190       305.045498118     -4043.250516546     -4043.055565285       475.712755573
      5772         5772.000000         1.118871818       307.093745521     -4043.258069406     -4043.056210983       429.908226329
      5773         5773.000000         1.115251533       306.100095660     -4043.252121175     -4043.056184093       720.941055570
      5774         5774.000000         1.095873683       300.781509164     -4043.233862610     -4043.054854432       470.219170898